LAMMPS (24 Jan 2020)
OMP_NUM_THREADS environment is not set. Defaulting to 1 thread. (src/comm.cpp:94)
  using 1 OpenMP thread(s) per MPI task
# ---------Initialize Simulation---------
clear
OMP_NUM_THREADS environment is not set. Defaulting to 1 thread. (src/comm.cpp:94)
  using 1 OpenMP thread(s) per MPI task
units 		metal
dimension 	3
boundary 	p p p   #p indicates that the boundary (x,y,z) is periodic  s is shrink-wrapped
atom_style 	atomic
atom_modify 	map array
variable	seed equal $s
variable	seed equal 14223+0
variable	dump string $d
variable	dump string cSiaSiInterface-100-0.xyz
variable	dumpA string ${dA}
variable	dumpA string aSiBox-100-0.xyz
variable	dumpsnap string ${ds}
variable	dumpsnap string cSiaSiInterfaceSnapshot-100-0.xyz
variable	vel_seed equal floor(random(0,100000,v_seed))
variable	anneal_seed equal floor(random(0,100000,v_seed))
print		"seed is ${seed}"
seed is 14223

# ---------Create Atoms-------------------
# Si is a diamond lattice
# lattice constant: 5.5 AA

lattice 	diamond 5.43 orient x 1 0 0 orient y 0 1 0 orient z 0 0 1
Lattice spacing in x,y,z = 5.43 5.43 5.43
region 		CrystallineBox block 0 3 0 3 0 0.94 units lattice
region		PURECRYSTALLINE block 0 3 0 3 0.25 0.75 units lattice

lattice		diamond 5.43 orient x 1 0 0 orient y 0 1 0 orient z 0 0 1
Lattice spacing in x,y,z = 5.43 5.43 5.43
region		AmorphousBox block 0 3 0 3 0.94 4.054 units lattice
region		PUREAMORPHOUS block 0 3 0 3 1.5 3.5 units lattice
region		InterfaceBox union 2 CrystallineBox AmorphousBox
create_box 	1 InterfaceBox
Created orthogonal box = (0 0 0) to (16.29 16.29 22.0132)
  1 by 2 by 2 MPI processor grid
mass 		1 28.0855

# ---------Read in the already created amorphous structure --------------
read_dump	${dumpA} 3850000 x y z box no add yes #3850000 should be whatever the last timestep is in the file
read_dump	aSiBox-100-0.xyz 3850000 x y z box no add yes 
  orthogonal box = (0 0 0) to (16.29 16.29 22.0132)
  0 atoms before read
  234 atoms in snapshot
  0 atoms purged
  0 atoms replaced
  0 atoms trimmed
  234 atoms added
  234 atoms after read

# --------- Create the fixed crystalline structure -----------
create_atoms 	1 region CrystallineBox
Created 72 atoms
  create_atoms CPU = 0.000135656 secs

# --------- Identify the relevant groups of atoms ------------
group		fixedatoms region CrystallineBox
72 atoms in group fixedatoms
group 		mobileatoms region AmorphousBox
234 atoms in group mobileatoms
group		puremobile region PUREAMORPHOUS
153 atoms in group puremobile
group		purecrystalline region PURECRYSTALLINE
54 atoms in group purecrystalline

# ----------Define interatomic potential --------------
pair_style 	tersoff/mod/c
pair_coeff 	* * Si.tersoff.modc Si
Reading potential file Si.tersoff.modc with DATE: 2016-11-09
#neighbor 	4.0 bin
#neigh_modify 	delay 10 check yes

# ---------Define Potential Energy Outputs for Excess Energy Calculation --------------
compute		pe_aSi mobileatoms pe/atom
compute		pe_aSitotal mobileatoms reduce sum c_pe_aSi
variable	pe_aSiAverage equal c_pe_aSitotal/count(mobileatoms)

compute		pe_cSi fixedatoms pe/atom
compute		pe_cSitotal fixedatoms reduce sum c_pe_cSi
variable	pe_cSiAverage equal c_pe_cSitotal/count(fixedatoms)

compute		pe_aSi_pure puremobile pe/atom
compute		pe_aSi_puretotal puremobile reduce sum c_pe_aSi_pure
variable	pe_aSi_pureAverage equal c_pe_aSi_puretotal/count(puremobile)

compute		pe_cSi_pure purecrystalline pe/atom
compute		pe_cSi_puretotal purecrystalline reduce sum c_pe_cSi_pure
variable	pe_cSi_pureAverage equal c_pe_cSi_puretotal/count(purecrystalline)

variable	excessEnergy equal v_pe_aSiAverage-v_pe_cSiAverage
fix		pe_output all ave/time 100 5 10000 v_pe_aSiAverage v_pe_cSiAverage v_pe_aSi_pureAverage v_pe_cSi_pureAverage v_excessEnergy file potentialEnergy_combined.output

# ----------Dump xyz file with atoms and bonds -----------
# Read with Ovito or jmol
dump 		1 all atom 10000 ${dump}
dump 		1 all atom 10000 cSiaSiInterface-100-0.xyz
#dump_modify 	1 element Si

# ------- Initialize conditions ----------
#set initial temperature of deposited a-Si to be 1600K, so that we avoid a large strain on the system
#velocity  	mobileatoms create 300.0 ${vel_seed} mom yes rot yes dist gaussian  # mom and rot yes means net linear and angular momentum is zero
timestep 	.0001 #.1 fs

# ------- Display conditions each 1000 step
thermo_style 	custom step temp pe ke etotal
thermo 		100

# --------Run simulation -------------
#Heat the a-Si back up to 1600K rapidly
minimize 	1.0e-2 1.0e-2 100 1000
WARNING: Using 'neigh_modify every 1 delay 0 check yes' setting during minimization (src/min.cpp:178)
Neighbor list info ...
  update every 1 steps, delay 0 steps, check yes
  max neighbors/atom: 2000, page size: 100000
  master list distance cutoff = 5.20569
  ghost atom cutoff = 5.20569
  binsize = 2.60285, bins = 7 7 9
  1 neighbor lists, perpetual/occasional/extra = 1 0 0
  (1) pair tersoff/mod/c, perpetual
      attributes: full, newton on
      pair build: full/bin/atomonly
      stencil: full/bin/3d
      bin: standard
Per MPI rank memory allocation (min/avg/max) = 5.323 | 5.323 | 5.323 Mbytes
Step Temp PotEng KinEng TotEng 
 3850000            0    -434.7837            0    -434.7837 
 3850009            0   -1276.5832            0   -1276.5832 
Loop time of 0.00705253 on 4 procs for 9 steps with 306 atoms

100.0% CPU use with 4 MPI tasks x 1 OpenMP threads

Minimization stats:
  Stopping criterion = energy tolerance
  Energy initial, next-to-last, final = 
        -434.783700353       -1264.095152     -1276.58323516
  Force two-norm initial, final = 1988.49 19.4284
  Force max component initial, final = 1150.64 3.56095
  Final line search alpha, max atom move = 0.0205292 0.0731035
  Iterations, force evaluations = 9 9

MPI task timing breakdown:
Section |  min time  |  avg time  |  max time  |%varavg| %total
---------------------------------------------------------------
Pair    | 0.0053501  | 0.005953   | 0.0065826  |   0.6 | 84.41
Neigh   | 0          | 0          | 0          |   0.0 |  0.00
Comm    | 0.00020919 | 0.00083779 | 0.0014416  |   0.0 | 11.88
Output  | 0          | 0          | 0          |   0.0 |  0.00
Modify  | 0          | 0          | 0          |   0.0 |  0.00
Other   |            | 0.0002617  |            |       |  3.71

Nlocal:    76.5 ave 80 max 73 min
Histogram: 1 0 0 0 1 1 0 0 0 1
Nghost:    469.25 ave 474 max 464 min
Histogram: 1 0 0 0 1 0 0 1 0 1
Neighs:    0 ave 0 max 0 min
Histogram: 4 0 0 0 0 0 0 0 0 0
FullNghs:  2273.5 ave 2430 max 2209 min
Histogram: 2 1 0 0 0 0 0 0 0 1

Total # of neighbors = 9094
Ave neighs/atom = 29.719
Neighbor list builds = 0
Dangerous builds = 0

fix		heat1 mobileatoms nvt temp 300.0 1600.0 0.1
run		500000
Per MPI rank memory allocation (min/avg/max) = 4.198 | 4.198 | 4.198 Mbytes
Step Temp PotEng KinEng TotEng 
 3850009            0   -1276.5832            0   -1276.5832 
 3850100    79.669315   -1279.7119    3.1409105    -1276.571 
 3850200    268.04638   -1287.0022    10.567553   -1276.4347 
 3850300    391.89997   -1291.6787    15.450399   -1276.2283 
 3850400    427.17305   -1293.0481    16.841018   -1276.2071 
 3850500    416.84345   -1292.8866     16.43378   -1276.4528 
 3850600    397.47528   -1292.5661    15.670202   -1276.8959 
 3850700    409.29312   -1293.5679    16.136113   -1277.4318 
 3850800    442.02868   -1295.4469    17.426691   -1278.0202 
 3850900    447.85888   -1296.2992    17.656543   -1278.6426 
 3851000    437.06818   -1296.5115    17.231127   -1279.2804 
 3851100    441.23505   -1297.3545    17.395403   -1279.9591 
 3851200    438.63705   -1298.0059    17.292978   -1280.7129 
 3851300    397.89394   -1297.1578    15.686708   -1281.4711 
 3851400    344.07857   -1295.6865    13.565072   -1282.1214 
 3851500    361.67301   -1296.9604    14.258721   -1282.7017 
 3851600    366.37431   -1297.7594    14.444067   -1283.3154 
 3851700    348.63091   -1297.6682    13.744545   -1283.9237 
 3851800    349.84088   -1298.3123    13.792247   -1284.5201 
 3851900    326.73688   -1297.9834    12.881387    -1285.102 
 3852000    303.55763   -1297.5838     11.96756   -1285.6162 
 3852100    314.16983   -1298.4887    12.385939   -1286.1028 
 3852200    305.91086   -1298.6474    12.060335    -1286.587 
 3852300    304.73416   -1299.0656    12.013944   -1287.0516 
 3852400    322.64375   -1300.2508    12.720018   -1287.5308 
 3852500    329.27038   -1301.0264    12.981269   -1288.0451 
 3852600    317.42158   -1301.0834    12.514138   -1288.5693 
 3852700    311.32286   -1301.3488      12.2737   -1289.0751 
 3852800    306.81446   -1301.6658    12.095959   -1289.5699 
 3852900    293.21597   -1301.6005    11.559848   -1290.0407 
 3853000    291.78646    -1301.986     11.50349   -1290.4825 
 3853100    304.10833   -1302.9171    11.989272   -1290.9278 
 3853200    293.32745   -1302.9403    11.564242    -1291.376 
 3853300    301.79904   -1303.7142    11.898229    -1291.816 
 3853400    294.32171   -1303.8687    11.603441   -1292.2653 
 3853500    277.05316     -1303.61    10.922639   -1292.6873 
 3853600    265.69943   -1303.5465    10.475026   -1293.0715 
 3853700    270.62583    -1304.101    10.669246   -1293.4318 
 3853800     284.7159   -1305.0229    11.224738   -1293.7982 
 3853900    277.36188   -1305.1078     10.93481    -1294.173 
 3854000    280.96556   -1305.6165    11.076883   -1294.5396 
 3854100    288.24076   -1306.2834    11.363703   -1294.9197 
 3854200    286.58263   -1306.6058    11.298332   -1295.3074 
 3854300    279.60118   -1306.7183    11.023093   -1295.6952 
 3854400    272.90312    -1306.823    10.759026    -1296.064 
 3854500    295.08602   -1308.0741    11.633573   -1296.4406 
 3854600    287.70126   -1308.1844    11.342433   -1296.8419 
 3854700    258.07486   -1307.3899    10.174432   -1297.2155 
 3854800    243.86126   -1307.1485    9.6140702   -1297.5344 
 3854900    256.51862   -1307.9447    10.113078   -1297.8316 
 3855000    245.20243   -1307.7881    9.6669451   -1298.1212 
 3855100    214.69381   -1306.8299    8.4641626   -1298.3657 
 3855200    224.29237   -1307.4091    8.8425794   -1298.5665 
 3855300    242.29052   -1308.3165    9.5521448   -1298.7644 
 3855400    231.53277   -1308.0831    9.1280275   -1298.9551 
 3855500    243.43876   -1308.7302    9.5974134   -1299.1328 
 3855600    250.25626   -1309.1837    9.8661888   -1299.3176 
 3855700    241.04628   -1309.0033    9.5030915   -1299.5002 
 3855800    252.98203   -1309.6536    9.9736505     -1299.68 
 3855900    249.34908   -1309.7003    9.8304241   -1299.8699 
 3856000    225.18204   -1308.9234    8.8776541   -1300.0457 
 3856100    225.69721   -1309.0951    8.8979644   -1300.1971 
 3856200    232.08251   -1309.4876    9.1497008   -1300.3379 
 3856300    222.66223   -1309.2449    8.7783124   -1300.4666 
 3856400    228.09125   -1309.5705    8.9923481   -1300.5781 
 3856500    240.57758   -1310.1686    9.4846134    -1300.684 
 3856600    240.59575   -1310.2751    9.4853297   -1300.7897 
 3856700     238.5789    -1310.298    9.4058166   -1300.8922 
 3856800    238.82623   -1310.4066    9.4155675   -1300.9911 
 3856900    240.27502   -1310.5593    9.4726849   -1301.0867 
 3857000    236.90059    -1310.519    9.3396505   -1301.1793 
 3857100    236.30646   -1310.5824    9.3162272   -1301.2661 
 3857200    224.82004   -1310.2082    8.8633825   -1301.3449 
 3857300    223.91906   -1310.2353    8.8278621   -1301.4074 
 3857400    231.77268   -1310.5956    9.1374859   -1301.4582 
 3857500    220.98008   -1310.2101    8.7119948   -1301.4981 
 3857600    227.75631   -1310.5012    8.9791431   -1301.5221 
 3857700    231.48827   -1310.6609    9.1262731   -1301.5347 
 3857800    213.20403   -1309.9415     8.405429    -1301.536 
 3857900    209.20273   -1309.7646    8.2476806   -1301.5169 
 3858000     230.1688   -1310.5474     9.074254   -1301.4732 
 3858100    244.24449   -1311.0423    9.6291788   -1301.4131 
 3858200    245.56988   -1311.0312    9.6814314   -1301.3498 
 3858300    234.52345   -1310.5326    9.2459333   -1301.2867 
 3858400    222.92089   -1310.0074      8.78851   -1301.2189 
 3858500    227.72617   -1310.1147    8.9779549   -1301.1368 
 3858600    243.81335   -1310.6497    9.6121813   -1301.0375 
 3858700    247.10122    -1310.673    9.7418034   -1300.9312 
 3858800     236.2608    -1310.142    9.3144272   -1300.8276 
 3858900    248.71554   -1310.5246    9.8054471   -1300.7192 
 3859000    267.95218   -1311.1688    10.563839   -1300.6049 
 3859100    255.89572   -1310.5932    10.088521   -1300.5047 
 3859200    239.96985   -1309.8789    9.4606538   -1300.4182 
 3859300    247.08792   -1310.0709    9.7412792   -1300.3296 
 3859400    252.40822   -1310.1885    9.9510285   -1300.2375 
 3859500    242.41159    -1309.706    9.5569178   -1300.1491 
 3859600    243.76013   -1309.6703    9.6100832   -1300.0602 
 3859700    264.60805   -1310.3967    10.431999   -1299.9647 
 3859800     274.1483   -1310.6842    10.808117   -1299.8761 
 3859900    276.18391   -1310.6965    10.888369   -1299.8081 
 3860000    282.78017    -1310.912    11.148423   -1299.7636 
 3860100    278.23231   -1310.7168    10.969126   -1299.7477 
 3860200    261.92803   -1310.0826    10.326341   -1299.7562 
 3860300    252.08051   -1309.7133    9.9381089   -1299.7752 
 3860400     250.4045   -1309.6685    9.8720334   -1299.7964 
 3860500      251.203   -1309.7218    9.9035137   -1299.8183 
 3860600    261.07588   -1310.1353    10.292745   -1299.8426 
 3860700    271.28477   -1310.5724    10.695224   -1299.8772 
 3860800    265.19775   -1310.3844    10.455247   -1299.9292 
 3860900    246.33589   -1309.7006    9.7116309    -1299.989 
 3861000     249.0643   -1309.8645    9.8191968   -1300.0453 
 3861100    263.50693   -1310.4914    10.388588   -1300.1028 
 3861200    290.00091    -1311.611    11.433096   -1300.1779 
 3861300    275.11089   -1311.1324    10.846066   -1300.2864 
 3861400    249.32259   -1310.2318    9.8293795   -1300.4024 
 3861500    255.86717   -1310.6022    10.087395   -1300.5148 
 3861600    248.72721   -1310.4348    9.8059071   -1300.6289 
 3861700    236.23289   -1310.0464    9.3133269   -1300.7331 
 3861800    251.64398   -1310.7472     9.920899   -1300.8263 
 3861900    259.13206   -1311.1399    10.216111   -1300.9238 
 3862000     243.8814   -1310.6362    9.6148643   -1301.0214 
 3862100    246.96304    -1310.846    9.7363558   -1301.1096 
 3862200    261.92231   -1311.5238    10.326115   -1301.1977 
 3862300    259.03102   -1311.5054    10.212128   -1301.2933 
 3862400    254.98463    -1311.443    10.052602   -1301.3904 
 3862500    264.10539   -1311.9025    10.412182   -1301.4903 
 3862600    267.80026   -1312.1584     10.55785   -1301.6005 
 3862700    261.04746   -1312.0109    10.291625   -1301.7192 
 3862800    256.32017   -1311.9448    10.105255   -1301.8395 
 3862900    246.20965   -1311.6625    9.7066538   -1301.9559 
 3863000    241.26779   -1311.5727    9.5118243   -1302.0609 
 3863100    241.42948   -1311.6719    9.5181988   -1302.1537 
 3863200    251.53528   -1312.1545    9.9166134   -1302.2379 
 3863300    259.36086   -1312.5474    10.225132   -1302.3223 
 3863400     251.4175     -1312.32      9.91197    -1302.408 
 3863500    243.53255   -1312.0882     9.601111   -1302.4871 
 3863600    243.68128   -1312.1629    9.6069746   -1302.5559 
 3863700    258.49349   -1312.8093    10.190936   -1302.6183 
 3863800    256.49217    -1312.796    10.112035    -1302.684 
 3863900    231.46265   -1311.8691    9.1252633   -1302.7438 
 3864000    228.21204   -1311.7807    8.9971102   -1302.7836 
 3864100    237.12085   -1312.1532    9.3483339   -1302.8049 
 3864200    219.26314   -1311.4543    8.6443054     -1302.81 
 3864300    213.95531   -1311.2255    8.4350478   -1302.7905 
 3864400    242.95767   -1312.3194    9.5784468   -1302.7409 
 3864500    260.13695   -1312.9288    10.255729   -1302.6731 
 3864600     276.3841   -1313.4989    10.896262   -1302.6026 
 3864700    283.54083   -1313.7221    11.178411   -1302.5437 
 3864800    267.45709   -1313.0493     10.54432    -1302.505 
 3864900    241.04796   -1311.9783    9.5031579   -1302.4751 
 3865000    240.06369   -1311.9005    9.4643535   -1302.4362 
 3865100    266.12216   -1312.8726    10.491692   -1302.3809 
 3865200    262.75447   -1312.6852    10.358923   -1302.3263 
 3865300    264.50117   -1312.7027    10.427785   -1302.2749 
 3865400    271.82428   -1312.9431    10.716494   -1302.2266 
 3865500     272.1801    -1312.917    10.730522   -1302.1865 
 3865600    275.42428   -1313.0148    10.858422   -1302.1564 
 3865700    283.31791   -1313.3084    11.169623   -1302.1387 
 3865800    270.68229     -1312.81    10.671472   -1302.1385 
 3865900     265.9067   -1312.6307    10.483197   -1302.1475 
 3866000    258.19932   -1312.3397    10.179339   -1302.1603 
 3866100    243.92794   -1311.7866    9.6166992   -1302.1699 
 3866200    262.27792   -1312.5092    10.340135   -1302.1691 
 3866300     270.3768   -1312.8275    10.659428   -1302.1681 
 3866400    251.61457   -1312.0917    9.9197393    -1302.172 
 3866500    258.08462   -1312.3449    10.174817     -1302.17 
 3866600     272.9037   -1312.9245    10.759049   -1302.1654 
 3866700    265.60333   -1312.6389    10.471237   -1302.1676 
 3866800    261.10229   -1312.4665    10.293787   -1302.1727 
 3866900    274.07716   -1312.9836    10.805312   -1302.1782 
 3867000    277.30333   -1313.1252    10.932502   -1302.1927 
 3867100    265.21372   -1312.6736    10.455877   -1302.2177 
 3867200    264.05628   -1312.6551    10.410246   -1302.2449 
 3867300    266.73781   -1312.7896    10.515963   -1302.2737 
 3867400    268.99045   -1312.9102    10.604772   -1302.3054 
 3867500    270.85967   -1313.0213    10.678465   -1302.3428 
 3867600    249.17786   -1312.2062    9.8236737   -1302.3825 
 3867700    253.63571   -1312.4113    9.9994217   -1302.4119 
 3867800    267.49653   -1312.9814    10.545875   -1302.4355 
 3867900     261.9336   -1312.7873    10.326561   -1302.4607 
 3868000    256.68943   -1312.6033    10.119813   -1302.4834 
 3868100    277.48394   -1313.4424    10.939623   -1302.5028 
 3868200    288.65208   -1313.9136    11.379919   -1302.5337 
 3868300    272.11189   -1313.3099    10.727833   -1302.5821 
 3868400    263.75767   -1313.0331    10.398473   -1302.6346 
 3868500    271.94154   -1313.4091    10.721117    -1302.688 
 3868600     270.9114   -1313.4276    10.680504   -1302.7471 
 3868700    263.54723   -1313.1998    10.390177   -1302.8096 
 3868800    253.50027   -1312.8618    9.9940819   -1302.8678 
 3868900    262.75087   -1313.2769    10.358781   -1302.9181 
 3869000    272.05981   -1313.6936     10.72578   -1302.9679 
 3869100    273.94224   -1313.8234    10.799993   -1303.0234 
 3869200    251.69827   -1313.0041    9.9230393   -1303.0811 
 3869300    240.65334    -1312.612       9.4876   -1303.1244 
 3869400    256.25495    -1313.254    10.102683   -1303.1514 
 3869500    261.20702    -1313.468    10.297915   -1303.1701 
 3869600    276.41997   -1314.0831    10.897676   -1303.1855 
 3869700    285.47784   -1314.4634    11.254777   -1303.2087 
 3869800    279.51771   -1314.2652    11.019802   -1303.2454 
 3869900    274.62883   -1314.1191    10.827062   -1303.2921 
 3870000    249.92467   -1313.1935    9.8531164   -1303.3403 
 3870100    242.45303    -1312.932    9.5585516   -1303.3734 
 3870200    258.86157   -1313.5957    10.205448   -1303.3903 
 3870300    257.11719   -1313.5353    10.136677   -1303.3986 
 3870400    254.48513   -1313.4307    10.032909   -1303.3978 
 3870500    247.03341   -1313.1245    9.7391301   -1303.3853 
 3870600     245.0088   -1313.0158    9.6593111   -1303.3565 
 3870700    267.89561   -1313.8698    10.561609   -1303.3082 
 3870800    266.03554   -1313.7397    10.488277   -1303.2514 
 3870900    231.28856   -1312.3112    9.1183997   -1303.1928 
 3871000    245.52749   -1312.7916    9.6797603   -1303.1118 
 3871100    279.91313    -1314.036    11.035392   -1303.0006 
 3871200    277.88276   -1313.8406    10.955346   -1302.8852 
 3871300    260.65034   -1313.0564    10.275969   -1302.7804 
 3871400    269.59483   -1313.3004    10.628599   -1302.6718 
 3871500    276.25431   -1313.4501    10.891145    -1302.559 
 3871600    273.63583   -1313.2386    10.787913   -1302.4507 
 3871700    265.56383   -1312.8181     10.46968   -1302.3484 
 3871800     276.5113   -1313.1465    10.901277   -1302.2452 
 3871900    293.06202   -1313.6965    11.553778   -1302.1427 
 3872000    290.24781    -1313.499    11.442829   -1302.0562 
 3872100     280.4401   -1313.0442    11.056167   -1301.9881 
 3872200    282.99502   -1313.0862    11.156893   -1301.9293 
 3872300    281.47903   -1312.9755    11.097126   -1301.8784 
 3872400    279.36501   -1312.8486    11.013782   -1301.8348 
 3872500    290.48872   -1313.2486    11.452327   -1301.7963 
 3872600    288.22721   -1313.1326    11.363169   -1301.7694 
 3872700    275.28599   -1312.6068     10.85297   -1301.7538 
 3872800     278.1467    -1312.706    10.965751   -1301.7402 
 3872900    281.26965   -1312.8179    11.088871    -1301.729 
 3873000    270.19345   -1312.3737      10.6522   -1301.7215 
 3873100    280.31689   -1312.7632     11.05131   -1301.7119 
 3873200    277.72373   -1312.6535    10.949076   -1301.7044 
 3873300    283.05461   -1312.8587    11.159242   -1301.6995 
 3873400    286.74482   -1313.0048    11.304727   -1301.7001 
 3873500    281.38967   -1312.8033    11.093603   -1301.7097 
 3873600    272.72634   -1312.4763    10.752057   -1301.7243 
 3873700    275.73307   -1312.6092    10.870596   -1301.7386 
 3873800    281.27858   -1312.8441    11.089223   -1301.7548 
 3873900    269.04875   -1312.3828    10.607071   -1301.7758 
 3874000    261.75727   -1312.1126    10.319609    -1301.793 
 3874100    279.76547   -1312.8324     11.02957   -1301.8028 
 3874200    280.20007   -1312.8623    11.046704   -1301.8156 
 3874300    262.96962   -1312.1982    10.367405   -1301.8308 
 3874400    279.19302   -1312.8463    11.007002   -1301.8393 
 3874500     302.6396   -1313.7833    11.931368   -1301.8519 
 3874600    305.46655    -1313.931    12.042818   -1301.8881 
 3874700    297.78118   -1313.6941    11.739828   -1301.9543 
 3874800    292.75886    -1313.587    11.541826   -1302.0452 
 3874900    297.05431   -1313.8736    11.711171   -1302.1625 
 3875000     281.6139   -1313.4048    11.102444   -1302.3024 
 3875100    288.31067   -1313.8208    11.366459   -1302.4544 
 3875200    287.69522   -1313.9658    11.342195   -1302.6236 
 3875300     268.5998   -1313.3839    10.589371   -1302.7945 
 3875400    243.58082   -1312.5419    9.6030141   -1302.9389 
 3875500    259.01974   -1313.2636    10.211683    -1303.052 
 3875600    273.83966   -1313.9488    10.795949   -1303.1528 
 3875700    263.34916   -1313.6247    10.382368   -1303.2423 
 3875800    255.90448   -1313.4011    10.088866   -1303.3122 
 3875900    254.73491   -1313.4035    10.042757   -1303.3607 
 3876000      264.621    -1313.823    10.432509   -1303.3905 
 3876100    264.76741   -1313.8458    10.438281   -1303.4075 
 3876200    255.53259   -1313.4855    10.074205   -1303.4113 
 3876300    259.66777   -1313.6348    10.237231   -1303.3976 
 3876400    270.13221   -1314.0174    10.649785   -1303.3677 
 3876500    275.30625   -1314.1811    10.853768   -1303.3273 
 3876600    268.66887   -1313.8729    10.592094   -1303.2809 
 3876700    263.28326   -1313.6042     10.37977   -1303.2244 
 3876800    259.52437   -1313.3853    10.231578   -1303.1537 
 3876900    282.30148   -1314.1923    11.129551   -1303.0628 
 3877000    276.11446   -1313.8471    10.885631   -1302.9615 
 3877100    253.17792    -1312.841    9.9813736   -1302.8596 
 3877200    276.20984   -1313.6263    10.889392   -1302.7369 
 3877300    299.81367   -1314.4141    11.819957   -1302.5941 
 3877400    296.36486   -1314.1435     11.68399   -1302.4595 
 3877500    278.47895   -1313.3213     10.97885   -1302.3425 
 3877600    278.13694   -1313.1969    10.965366   -1302.2315 
 3877700    292.58154   -1313.6532    11.534835   -1302.1183 
 3877800    283.14138   -1313.1785    11.162663   -1302.0158 
 3877900    278.23218   -1312.8923    10.969121   -1301.9232 
 3878000    274.84824   -1312.6706    10.835711   -1301.8348 
 3878100    277.67497   -1312.6958    10.947153   -1301.7486 
 3878200    278.63691    -1312.651    10.985077   -1301.6659 
 3878300    290.95579   -1313.0589    11.470741   -1301.5882 
 3878400    292.00154   -1313.0346    11.511969   -1301.5226 
 3878500     286.6404   -1312.7725     11.30061   -1301.4719 
 3878600    286.72413   -1312.7344    11.303911   -1301.4305 
 3878700    301.35435   -1313.2773    11.880698   -1301.3966 
 3878800    315.56317   -1313.8195    12.440871   -1301.3786 
 3878900    299.88736   -1313.2072    11.822862   -1301.3843 
 3879000    269.17586   -1312.0089    10.612082   -1301.3968 
 3879100    280.40138   -1312.4523     11.05464   -1301.3977 
 3879200    299.43376   -1313.1992     11.80498   -1301.3942 
 3879300    292.61123   -1312.9349    11.536006   -1301.3989 
 3879400    266.53551   -1311.9129    10.507988    -1301.405 
 3879500    277.11868   -1312.3231    10.925222   -1301.3979 
 3879600    307.74738    -1313.517    12.132739   -1301.3843 
 3879700    294.98193   -1313.0132    11.629469   -1301.3837 
 3879800    270.37345   -1312.0467    10.659296   -1301.3874 
 3879900    282.75508   -1312.5278    11.147434   -1301.3803 
 3880000    295.98901   -1313.0377    11.669173   -1301.3685 
 3880100    297.77494   -1313.1013    11.739582   -1301.3617 
 3880200    297.64705   -1313.0966     11.73454    -1301.362 
 3880300    300.24676   -1313.2065    11.837032   -1301.3695 
 3880400    297.90979   -1313.1304    11.744898   -1301.3855 
 3880500    296.85218   -1313.1117    11.703202   -1301.4085 
 3880600    290.93714   -1312.9074    11.470006   -1301.4374 
 3880700    275.40846   -1312.3236    10.857798   -1301.4659 
 3880800    285.66626   -1312.7479    11.262205   -1301.4857 
 3880900    291.30545   -1312.9879    11.484526   -1301.5034 
 3881000    280.31884   -1312.5728    11.051386   -1301.5214 
 3881100    283.72106   -1312.7188    11.185517   -1301.5333 
 3881200    314.43349   -1313.9399    12.396334   -1301.5435 
 3881300    315.60842   -1314.0171    12.442655   -1301.5744 
 3881400    291.63873   -1313.1253    11.497666   -1301.6276 
 3881500    291.19125   -1313.1695    11.480024   -1301.6894 
 3881600    308.84595   -1313.9424    12.176049   -1301.7664 
 3881700    300.95686    -1313.739    11.865027    -1301.874 
 3881800    278.35106   -1312.9737    10.973808   -1301.9999 
 3881900    285.02721   -1313.3736    11.237011   -1302.1366 
 3882000    270.23829   -1312.9385    10.653967   -1302.2846 
 3882100    266.25131   -1312.9243    10.496783   -1302.4275 
 3882200    267.73777     -1313.12    10.555386   -1302.5646 
 3882300    272.24756    -1313.427    10.733181   -1302.6938 
 3882400     272.1397   -1313.5444    10.728929   -1302.8155 
 3882500    267.23058   -1313.4588     10.53539   -1302.9234 
 3882600    282.57802   -1314.1585    11.140453   -1303.0181 
 3882700    291.50605   -1314.6039    11.492435   -1303.1115 
 3882800    277.18601   -1314.1294    10.927877   -1303.2015 
 3882900    278.32584    -1314.252    10.972814   -1303.2792 
 3883000    281.71817   -1314.4544    11.106554   -1303.3478 
 3883100    277.15863   -1314.3345    10.926797   -1303.4077 
 3883200    264.46796   -1313.8804    10.426476   -1303.4539 
 3883300    263.15943   -1313.8542    10.374888   -1303.4793 
 3883400    266.32858   -1313.9833     10.49983   -1303.4834 
 3883500    254.19243   -1313.4869     10.02137   -1303.4656 
 3883600    272.09263    -1314.145    10.727073    -1303.418 
 3883700    278.85536   -1314.3364     10.99369   -1303.3427 
 3883800    264.09799   -1313.6591     10.41189   -1303.2472 
 3883900    261.20674     -1313.42    10.297904   -1303.1221 
 3884000    271.35645   -1313.6555     10.69805   -1302.9575 
 3884100    286.06033   -1314.0297    11.277741    -1302.752 
 3884200    273.89822   -1313.3292    10.798258    -1302.531 
 3884300    265.28739   -1312.7713    10.458781   -1302.3125 
 3884400    273.23921   -1312.8681    10.772277   -1302.0958 
 3884500    267.67532    -1312.449    10.552924    -1301.896 
 3884600    270.74506   -1312.3993    10.673947   -1301.7254 
 3884700    285.36518   -1312.8249    11.250335   -1301.5745 
 3884800    281.87178   -1312.5635     11.11261   -1301.4509 
 3884900    288.99375   -1312.7395    11.393389   -1301.3461 
 3885000     306.2289   -1313.3259    12.072873    -1301.253 
 3885100    305.37393   -1313.2159    12.039167   -1301.1767 
 3885200    277.22167    -1312.046    10.929283   -1301.1167 
 3885300    286.13544   -1312.3327    11.280702    -1301.052 
 3885400    309.13718   -1313.1657    12.187531   -1300.9782 
 3885500    296.53797   -1312.6026    11.690815   -1300.9117 
 3885600    293.98343   -1312.4389    11.590104   -1300.8488 
 3885700    311.83988   -1313.0761    12.294083    -1300.782 
 3885800    311.03382   -1312.9844    12.262304   -1300.7221 
 3885900    309.14064   -1312.8599    12.187667   -1300.6723 
 3886000    323.17009   -1313.3704    12.740769   -1300.6296 
 3886100    312.66018   -1312.9295    12.326423   -1300.6031 
 3886200    306.64518   -1312.6764    12.089285   -1300.5871 
 3886300    318.62387   -1313.1384    12.561537   -1300.5769 
 3886400    297.03416   -1312.2882    11.710377   -1300.5778 
 3886500    276.38331   -1311.4719    10.896231   -1300.5756 
 3886600    285.74987   -1311.8221    11.265501   -1300.5566 
 3886700    303.17001   -1312.4757    11.952279   -1300.5235 
 3886800    306.79093   -1312.5825    12.095031   -1300.4874 
 3886900    294.87397   -1312.0781    11.625213   -1300.4529 
 3887000    293.65909   -1311.9899    11.577317   -1300.4126 
 3887100    309.11805   -1312.5498    12.186776    -1300.363 
 3887200    304.21122   -1312.3064    11.993328   -1300.3131 
 3887300    305.28451   -1312.2986    12.035642   -1300.2629 
 3887400    329.70594   -1313.2095    12.998441   -1300.2111 
 3887500    331.90714   -1313.2601    13.085221   -1300.1749 
 3887600    304.52081   -1312.1651    12.005533   -1300.1596 
 3887700    312.41418   -1312.4646    12.316724   -1300.1479 
 3887800    315.65323   -1312.5857    12.444422   -1300.1413 
 3887900    298.05064   -1311.8927    11.750451   -1300.1422 
 3888000    294.87966   -1311.7649    11.625437   -1300.1395 
 3888100    298.13281   -1311.8825     11.75369   -1300.1288 
 3888200    319.26006   -1312.6992    12.586619   -1300.1126 
 3888300    326.65538   -1312.9832    12.878174   -1300.1051 
 3888400    313.18828    -1312.461    12.347243   -1300.1138 
 3888500    306.77631   -1312.2248    12.094455   -1300.1303 
 3888600    313.57443   -1312.5133    12.362466   -1300.1508 
 3888700     314.9983    -1312.599    12.418601   -1300.1804 
 3888800    302.61629   -1312.1497    11.930449   -1300.2193 
 3888900    296.44513   -1311.9461    11.687155    -1300.259 
 3889000    310.33129    -1312.532    12.234607   -1300.2974 
 3889100    316.36666   -1312.8176    12.472548   -1300.3451 
 3889200    296.32592   -1312.0855    11.682455    -1300.403 
 3889300    282.93076   -1311.6102     11.15436   -1300.4558 
 3889400    302.02224   -1312.4061    11.907029   -1300.4991 
 3889500    294.04413   -1312.1348    11.592497   -1300.5423 
 3889600     280.5573   -1311.6375    11.060787   -1300.5767 
 3889700    315.69124   -1313.0446     12.44592   -1300.5987 
 3889800    333.52083   -1313.7794     13.14884   -1300.6306 
 3889900    324.97835   -1313.4992    12.812058   -1300.6871 
 3890000    300.53045   -1312.6074    11.848216   -1300.7592 
 3890100    287.69653   -1312.1708    11.342247   -1300.8285 
 3890200      286.595   -1312.1866     11.29882   -1300.8877 
 3890300    296.96244   -1312.6445    11.707549    -1300.937 
 3890400    298.42954   -1312.7476    11.765389   -1300.9822 
 3890500     287.9294   -1312.3723    11.351428   -1301.0209 
 3890600    296.47727   -1312.7362    11.688422   -1301.0477 
 3890700    307.80857    -1313.203    12.135151   -1301.0678 
 3890800    299.84583   -1312.9081    11.821225   -1301.0868 
 3890900    292.18686   -1312.6182    11.519275   -1301.0989 
 3891000    303.49171   -1313.0643    11.964962   -1301.0993 
 3891100    312.23892   -1313.4035    12.309815   -1301.0937 
 3891200    300.12761   -1312.9194    11.832334    -1301.087 
 3891300    296.27494   -1312.7526    11.680445   -1301.0722 
 3891400    295.63997   -1312.6992    11.655412   -1301.0438 
 3891500    297.37396   -1312.7241    11.723773   -1301.0003 
 3891600     307.9483   -1313.0802     12.14066   -1300.9395 
 3891700    297.09978   -1312.5804    11.712964   -1300.8675 
 3891800    284.01382   -1311.9776    11.197059   -1300.7805 
 3891900    298.02594   -1312.4153    11.749477   -1300.6658 
 3892000    319.75347   -1313.1282    12.606071   -1300.5221 
 3892100    307.37485   -1312.4881    12.118052   -1300.3701 
 3892200    298.09729     -1311.97     11.75229   -1300.2177 
 3892300    327.27581   -1312.9494    12.902634   -1300.0468 
 3892400    324.96758   -1312.6886    12.811634    -1299.877 
 3892500    303.88474   -1311.7077    11.980457   -1299.7272 
 3892600    308.62235   -1311.7504    12.167234   -1299.5831 
 3892700    326.09409   -1312.2929    12.856045   -1299.4368 
 3892800    329.20433   -1312.2832    12.978665   -1299.3045 
 3892900    330.51615   -1312.2235    13.030382   -1299.1931 
 3893000    325.75791   -1311.9456    12.842792   -1299.1028 
 3893100    326.51293   -1311.9017    12.872558   -1299.0292 
 3893200    342.62519   -1312.4773    13.507774   -1298.9695 
 3893300     337.8434   -1312.2529    13.319255   -1298.9336 
 3893400    308.23193   -1311.0692    12.151842   -1298.9174 
 3893500     315.8571   -1311.3526    12.452459   -1298.9002 
 3893600    324.99794   -1311.6959    12.812831   -1298.8831 
 3893700    311.26952   -1311.1439    12.271597   -1298.8723 
 3893800    307.72593    -1310.991    12.131893   -1298.8591 
 3893900    333.94894   -1312.0072    13.165718   -1298.8414 
 3894000    351.25525   -1312.6848    13.848008   -1298.8368 
 3894100    339.19608   -1312.2321    13.372583   -1298.8595 
 3894200    330.55169   -1311.9331    13.031783   -1298.9013 
 3894300    321.79705   -1311.6404    12.686638   -1298.9538 
 3894400    326.50612   -1311.8854     12.87229   -1299.0131 
 3894500     322.2488   -1311.7868    12.704448   -1299.0824 
 3894600    299.15939   -1310.9482    11.794163   -1299.1541 
 3894700    313.54883   -1311.5791    12.361457   -1299.2177 
 3894800    336.13869   -1312.5406    13.252048   -1299.2885 
 3894900    334.55712   -1312.5732    13.189695   -1299.3835 
 3895000    318.67359   -1312.0615    12.563497    -1299.498 
 3895100    345.18145    -1313.243    13.608552   -1299.6344 
 3895200    331.92204   -1312.9026    13.085809   -1299.8168 
 3895300    287.09539   -1311.3276    11.318547   -1300.0091 
 3895400    297.31464   -1311.9106    11.721435   -1300.1891 
 3895500    317.37139   -1312.8953    12.512159   -1300.3832 
 3895600    299.07025   -1312.3726    11.790649   -1300.5819 
 3895700    307.99812   -1312.9092    12.142624   -1300.7666 
 3895800    316.08218     -1313.41    12.461333   -1300.9487 
 3895900    307.12523   -1313.2261    12.108211   -1301.1179 
 3896000    306.18081   -1313.3346    12.070978   -1301.2636 
 3896100    295.41738   -1313.0305    11.646636   -1301.3839 
 3896200    264.89926   -1311.9074     10.44348   -1301.4639 
 3896300    283.77925   -1312.6865    11.187811   -1301.4987 
 3896400    312.64102   -1313.8334    12.325667   -1301.5077 
 3896500    284.25076   -1312.7119      11.2064   -1301.5055 
 3896600    286.38378   -1312.7726    11.290493   -1301.4821 
 3896700    318.81798   -1314.0082     12.56919    -1301.439 
 3896800    308.27216     -1313.55    12.153428   -1301.3966 
 3896900    284.96415   -1312.5882    11.234525   -1301.3536 
 3897000    282.94065   -1312.4516    11.154749   -1301.2968 
 3897100    300.15114    -1313.056    11.833262   -1301.2227 
 3897200    311.23119   -1313.4103    12.270086   -1301.1402 
 3897300    299.48412   -1312.8673    11.806965   -1301.0603 
 3897400    306.14704   -1313.0472    12.069646   -1300.9776 
 3897500    316.37262   -1313.3627    12.472783   -1300.8899 
 3897600    283.96034   -1312.0022     11.19495   -1300.8072 
 3897700    292.43672   -1312.2441    11.529126   -1300.7149 
 3897800    327.54217   -1313.5148    12.913135   -1300.6017 
 3897900    313.12637   -1312.8395    12.344802   -1300.4947 
 3898000    296.97988   -1312.1041    11.708237   -1300.3958 
 3898100    309.89765   -1312.5055    12.217512    -1300.288 
 3898200    313.58068   -1312.5367    12.362713    -1300.174 
 3898300    316.35118   -1312.5324    12.471938   -1300.0605 
 3898400    330.94355   -1312.9948    13.047232   -1299.9476 
 3898500    329.35777   -1312.8279    12.984714   -1299.8432 
 3898600    302.35742   -1311.6727    11.920243   -1299.7524 
 3898700    311.18458   -1311.9258    12.268248   -1299.6575 
 3898800    335.99077   -1312.7978    13.246216   -1299.5516 
 3898900    318.96015    -1312.031    12.574795   -1299.4562 
 3899000    320.40979   -1311.9972    12.631946   -1299.3652 
 3899100    316.11943   -1311.7373    12.462801   -1299.2745 
 3899200    319.80549   -1311.7898    12.608122   -1299.1817 
 3899300    324.89937   -1311.8961    12.808945   -1299.0872 
 3899400    342.00404    -1312.477    13.483285   -1298.9937 
 3899500    352.21021   -1312.7977    13.885657   -1298.9121 
 3899600    332.45531   -1311.9597    13.106833   -1298.8529 
 3899700    319.47768   -1311.3988    12.595198   -1298.8036 
 3899800    318.44718   -1311.3056    12.554571   -1298.7511 
 3899900    325.85893   -1311.5394    12.846775   -1298.6926 
 3900000    325.27216   -1311.4557    12.823641    -1298.632 
 3900100    351.05147   -1312.4102    13.839974   -1298.5702 
 3900200     356.4484    -1312.575    14.052744   -1298.5222 
 3900300    337.05646   -1311.7851     13.28823   -1298.4968 
 3900400    340.29592   -1311.8964    13.415943   -1298.4805 
 3900500    332.10967   -1311.5648    13.093206   -1298.4716 
 3900600    334.30024   -1311.6453    13.179568   -1298.4658 
 3900700    338.47612   -1311.8076    13.344199   -1298.4634 
 3900800     333.5663   -1311.6178    13.150632   -1298.4672 
 3900900    349.40533   -1312.2514    13.775076   -1298.4763 
 3901000    347.62243   -1312.2064    13.704786   -1298.5016 
 3901100    347.71664    -1312.254      13.7085   -1298.5455 
 3901200    341.61922   -1312.0785    13.468114   -1298.6104 
 3901300    331.62764   -1311.7678    13.074202   -1298.6936 
 3901400    334.17576   -1311.9679     13.17466   -1298.7932 
 3901500    350.12299   -1312.7251    13.803369   -1298.9217 
 3901600    346.98481   -1312.7752    13.679649   -1299.0956 
 3901700     337.7815   -1312.6276    13.316814   -1299.3108 
 3901800    337.14401    -1312.851    13.291681   -1299.5593 
 3901900    340.70735   -1313.2689    13.432164   -1299.8367 
 3902000    338.46925   -1313.4703    13.343928   -1300.1264 
 3902100     327.3365   -1313.3054    12.905027   -1300.4004 
 3902200    321.89108   -1313.3232    12.690345   -1300.6328 
 3902300    327.23657   -1313.7264    12.901087   -1300.8253 
 3902400     302.5156   -1312.9007    11.926479   -1300.9742 
 3902500    301.66623   -1312.9641    11.892993   -1301.0711 
 3902600    311.34898    -1313.409    12.274729   -1301.1342 
 3902700    294.75948   -1312.7913    11.620699   -1301.1706 
 3902800    290.01978   -1312.6101     11.43384   -1301.1762 
 3902900    311.72398   -1313.4431    12.289513   -1301.1535 
 3903000    315.68092   -1313.5598    12.445513   -1301.1143 
 3903100    312.47355   -1313.3835    12.319065   -1301.0645 
 3903200    316.55856   -1313.4815    12.480114   -1301.0014 
 3903300    329.92828   -1313.9342    13.007206    -1300.927 
 3903400    330.81554   -1313.8899    13.042186   -1300.8478 
 3903500    308.21816   -1312.9206    12.151299   -1300.7693 
 3903600    306.32199   -1312.7545    12.076543    -1300.678 
 3903700    305.14247    -1312.598    12.030042   -1300.5679 
 3903800    320.11663    -1313.058    12.620388   -1300.4376 
 3903900    336.39809   -1313.5547    13.262274   -1300.2925 
 3904000    341.87923   -1313.6265    13.478365   -1300.1481 
 3904100    330.23427   -1313.0346     13.01927   -1300.0154 
 3904200    338.20193   -1313.2218    13.333389   -1299.8884 
 3904300    322.74054   -1312.4911    12.723834   -1299.7673 
 3904400     291.3405   -1311.1397    11.485908   -1299.6538 
 3904500    337.99606   -1312.8439    13.325273   -1299.5186 
 3904600    363.52633   -1313.7059    14.331787   -1299.3742 
 3904700     328.6482   -1312.2172     12.95674   -1299.2604 
 3904800    317.05417   -1311.6605    12.499653   -1299.1608 
 3904900    342.08092   -1312.5399    13.486316   -1299.0536 
 3905000     347.9222   -1312.6689    13.716605   -1298.9523 
 3905100    331.03437   -1311.9179    13.050813   -1298.8671 
 3905200    310.30346    -1311.022     12.23351   -1298.7885 
 3905300    304.55435   -1310.7077    12.006856   -1298.7009 
 3905400    335.99554    -1311.842    13.246404   -1298.5956 
 3905500    373.40866    -1313.207    14.721392   -1298.4856 
 3905600     356.7639   -1312.4703    14.065183   -1298.4051 
 3905700    318.90477    -1310.922    12.572611   -1298.3494 
 3905800    353.55113    -1312.227    13.938522   -1298.2884 
 3905900    379.41025    -1313.194       14.958    -1298.236 
 3906000    353.53514   -1312.1533    13.937891   -1298.2154 
 3906100    326.20141   -1311.0682    12.860277   -1298.2079 
 3906200    330.02931   -1311.2035    13.011189   -1298.1923 
 3906300    363.45865   -1312.4997    14.329119   -1298.1706 
 3906400    351.66217   -1312.0274    13.864051   -1298.1634 
 3906500    341.50029   -1311.6288    13.463425   -1298.1654 
 3906600    335.34905   -1311.3884    13.220916   -1298.1675 
 3906700    345.71991   -1311.7958    13.629781    -1298.166 
 3906800    347.24193   -1311.8567    13.689785    -1298.167 
 3906900    333.15483   -1311.3052    13.134411   -1298.1708 
 3907000    343.96465   -1311.7301    13.560581   -1298.1695 
 3907100    350.83751   -1312.0006    13.831539   -1298.1691 
 3907200    339.92603   -1311.5753    13.401361   -1298.1739 
 3907300     342.2795   -1311.6719    13.494145   -1298.1778 
 3907400    350.91754   -1312.0167    13.834694    -1298.182 
 3907500    346.14842   -1311.8386    13.646674    -1298.192 
 3907600    343.30641   -1311.7402     13.53463   -1298.2056 
 3907700    354.28077   -1312.1902    13.967287    -1298.223 
 3907800    334.99792   -1311.4573    13.207073   -1298.2502 
 3907900    311.94229   -1310.5722     12.29812    -1298.274 
 3908000    335.18884   -1311.4957      13.2146   -1298.2811 
 3908100    354.57072   -1312.2604    13.978718   -1298.2817 
 3908200    330.41621   -1311.3141    13.026442   -1298.2877 
 3908300    329.13458   -1311.2611    12.975915   -1298.2852 
 3908400     353.3363   -1312.1999    13.930052   -1298.2699 
 3908500    349.52863   -1312.0352    13.779937   -1298.2553 
 3908600    344.06803   -1311.8067    13.564656    -1298.242 
 3908700     362.2211   -1312.5075    14.280329   -1298.2272 
 3908800     355.8671    -1312.252    14.029827   -1298.2222 
 3908900    342.74782    -1311.737    13.512608   -1298.2244 
 3909000    362.04693   -1312.5007    14.273463   -1298.2272 
 3909100    349.69549   -1312.0272    13.786516   -1298.2407 
 3909200     314.1323   -1310.6396     12.38446   -1298.2551 
 3909300    315.37011   -1310.6817     12.43326   -1298.2484 
 3909400    339.92915   -1311.6194    13.401484    -1298.218 
 3909500    345.07513   -1311.7809    13.604361   -1298.1766 
 3909600    344.25137   -1311.7029    13.571885    -1298.131 
 3909700    342.71293   -1311.5912    13.511233     -1298.08 
 3909800     344.2531    -1311.595    13.571953    -1298.023 
 3909900    341.39762   -1311.4191    13.459377   -1297.9597 
 3910000     344.7817   -1311.4817    13.592792    -1297.889 
 3910100    347.52725   -1311.5121    13.701034    -1297.811 
 3910200    338.19288   -1311.0621    13.333033   -1297.7291 
 3910300    337.76041   -1310.9543    13.315983   -1297.6384 
 3910400    360.49867   -1311.7461    14.212424   -1297.5337 
 3910500    370.34694   -1312.0289    14.600685   -1297.4282 
 3910600    346.71677    -1311.006    13.669081   -1297.3369 
 3910700    359.77952    -1311.431    14.184072   -1297.2469 
 3910800    380.19928   -1312.1461    14.989107    -1297.157 
 3910900    371.71666   -1311.7418    14.654685   -1297.0872 
 3911000    358.88551   -1311.1841    14.148826   -1297.0352 
 3911100    353.95348    -1310.945    13.954384   -1296.9906 
 3911200    360.22591   -1311.1492     14.20167   -1296.9476 
 3911300    366.34968   -1311.3524    14.443096   -1296.9093 
 3911400    352.79371   -1310.7894    13.908661   -1296.8808 
 3911500    343.73992   -1310.4053    13.551721   -1296.8536 
 3911600    331.63653   -1309.8936    13.074553    -1296.819 
 3911700    343.40502   -1310.3071    13.538518   -1296.7685 
 3911800     373.6399   -1311.4348    14.730508   -1296.7043 
 3911900    378.09489    -1311.554    14.906143   -1296.6479 
 3912000    370.75161   -1311.2256    14.616639    -1296.609 
 3912100    365.80617   -1311.0049    14.421668   -1296.5833 
 3912200    368.03244   -1311.0763    14.509438   -1296.5669 
 3912300    365.70271   -1310.9793     14.41759   -1296.5617 
 3912400    361.65848   -1310.8249    14.258148   -1296.5667 
 3912500    357.76352   -1310.6845    14.104592   -1296.5799 
 3912600    364.45125   -1310.9673    14.368251    -1296.599 
 3912700    385.98914   -1311.8512    15.217369   -1296.6338 
 3912800    356.65128   -1310.7579    14.060743   -1296.6972 
 3912900    337.84167   -1310.0859    13.319186   -1296.7667 
 3913000    381.31903   -1311.8748    15.033253   -1296.8416 
 3913100    374.74773   -1311.7264    14.774183   -1296.9522 
 3913200    334.85047    -1310.283     13.20126   -1297.0817 
 3913300    335.20102   -1310.4184    13.215081   -1297.2033 
 3913400    362.66487   -1311.6295    14.297825   -1297.3317 
 3913500    352.19548   -1311.3615    13.885076   -1297.4764 
 3913600    344.87141   -1311.2204    13.596329    -1297.624 
 3913700    369.74093   -1312.3541    14.576794   -1297.7773 
 3913800    368.61437   -1312.4868     14.53238   -1297.9545 
 3913900    346.88011   -1311.8103    13.675521   -1298.1348 
 3914000    351.99602   -1312.1845    13.877212   -1298.3073 
 3914100    353.87916   -1312.4269    13.951454   -1298.4754 
 3914200    342.13016   -1312.1233    13.488257    -1298.635 
 3914300    309.47308   -1310.9655    12.200773   -1298.7647 
 3914400    317.69536   -1311.3781    12.524931   -1298.8531 
 3914500    337.97151     -1312.24    13.324305   -1298.9157 
 3914600    319.35236   -1311.5494    12.590257   -1298.9592 
 3914700    326.00155   -1311.8271    12.852397   -1298.9747 
 3914800    355.19904   -1312.9727    14.003489   -1298.9692 
 3914900    340.57983   -1312.3852    13.427137   -1298.9581 
 3915000    353.56069   -1312.8753    13.938899   -1298.9364 
 3915100    348.44882   -1312.6465    13.737366   -1298.9091 
 3915200    314.29033   -1311.2648     12.39069   -1298.8741 
 3915300    325.95832   -1311.6624    12.850693   -1298.8117 
 3915400    334.91273   -1311.9235    13.203715   -1298.7198 
 3915500    348.65125     -1312.35    13.745347   -1298.6046 
 3915600    359.04886   -1312.6274    14.155266   -1298.4722 
 3915700    365.69865   -1312.7501     14.41743   -1298.3327 
 3915800    347.93427   -1311.9107     13.71708   -1298.1936 
 3915900    332.37618   -1311.1561    13.103713   -1298.0524 
 3916000    352.43148   -1311.7828     13.89438   -1297.8885 
 3916100     357.1825   -1311.7925    14.081686   -1297.7108 
 3916200    353.04773   -1311.4527    13.918675    -1297.534 
 3916300     339.8361   -1310.7612    13.397815   -1297.3634 
 3916400     351.8633   -1311.0641     13.87198   -1297.1922 
 3916500    360.90388   -1311.2531    14.228399   -1297.0247 
 3916600    356.00561   -1310.9134    14.035288   -1296.8781 
 3916700    373.00169   -1311.4568    14.705347   -1296.7514 
 3916800    370.39971    -1311.255    14.602766   -1296.6522 
 3916900    355.28171   -1310.5879    14.006748   -1296.5811 
 3917000    379.66034   -1311.4909     14.96786    -1296.523 
 3917100    380.06972   -1311.4704    14.983999   -1296.4864 
 3917200    347.91466   -1310.1848    13.716307   -1296.4685 
 3917300    367.04688   -1310.9181    14.470583   -1296.4476 
 3917400    389.36342   -1311.7825    15.350398   -1296.4321 
 3917500    392.77473   -1311.9233    15.484886   -1296.4384 
 3917600    351.76044   -1310.3307    13.867925   -1296.4627 
 3917700    343.64816   -1310.0248    13.548103   -1296.4767 
 3917800    379.06557   -1311.4232    14.944412   -1296.4788 
 3917900    365.82047    -1310.911    14.422232   -1296.4888 
 3918000    357.39446   -1310.5901    14.090042   -1296.5001 
 3918100    354.86116   -1310.4963    13.990169   -1296.5061 
 3918200    355.62027   -1310.5251    14.020096    -1296.505 
 3918300    376.98086   -1311.3603    14.862223   -1296.4981 
 3918400    383.90243    -1311.635    15.135101   -1296.4999 
 3918500    372.89325   -1311.2168    14.701072   -1296.5157 
 3918600    362.70661   -1310.8376     14.29947   -1296.5381 
 3918700    359.82831   -1310.7449    14.185995   -1296.5589 
 3918800    369.22581   -1311.1338    14.556486   -1296.5773 
 3918900    364.54978   -1310.9703    14.372136   -1296.5982 
 3919000    357.83813   -1310.7264    14.107534   -1296.6188 
 3919100    357.65312   -1310.7347     14.10024   -1296.6345 
 3919200    365.54412   -1311.0563    14.411337    -1296.645 
 3919300    368.48091   -1311.1823    14.527118   -1296.6552 
 3919400    372.93831   -1311.3712    14.702848   -1296.6683 
 3919500    362.35402   -1310.9718     14.28557   -1296.6862 
 3919600    366.97988    -1311.171    14.467941   -1296.7031 
 3919700    374.57993   -1311.4903    14.767568   -1296.7227 
 3919800    354.79102   -1310.7352    13.987403   -1296.7478 
 3919900    356.47551    -1310.821    14.053813   -1296.7672 
 3920000    355.45514   -1310.7932    14.013586   -1296.7797 
 3920100    354.08053   -1310.7429    13.959393   -1296.7835 
 3920200    369.44637   -1311.3426    14.565181   -1296.7775 
 3920300     369.0411   -1311.3189    14.549203   -1296.7697 
 3920400    346.00406   -1310.4005    13.640983   -1296.7595 
 3920500    362.94731   -1311.0414     14.30896   -1296.7325 
 3920600    376.38714   -1311.5325    14.838816   -1296.6937 
 3920700    363.11865   -1310.9689    14.315715   -1296.6532 
 3920800    359.80885   -1310.7895    14.185228   -1296.6042 
 3920900     366.2374   -1310.9794    14.438669   -1296.5407 
 3921000     363.6839   -1310.8032    14.337999   -1296.4652 
 3921100    371.50972   -1311.0233    14.646527   -1296.3768 
 3921200    372.80899   -1310.9751     14.69775   -1296.2774 
 3921300    348.54107   -1309.9141    13.741003   -1296.1731 
 3921400    354.07757    -1310.009    13.959276   -1296.0497 
 3921500    373.30176   -1310.6154    14.717177   -1295.8983 
 3921600    369.84423   -1310.3184    14.580866   -1295.7375 
 3921700    394.56109   -1311.1227    15.555312   -1295.5674 
 3921800    395.87835   -1311.0112    15.607244   -1295.4039 
 3921900    378.20524   -1310.1729    14.910494   -1295.2624 
 3922000    388.83393   -1310.4594    15.329523   -1295.1299 
 3922100    401.23539   -1310.8244    15.818442   -1295.0059 
 3922200    376.88024   -1309.7633    14.858256    -1294.905 
 3922300    395.81572    -1310.418    15.604775   -1294.8132 
 3922400    380.28353   -1309.7274    14.992429   -1294.7349 
 3922500     376.8835   -1309.5248    14.858385   -1294.6664 
 3922600    396.37383   -1310.2261    15.626778   -1294.5993 
 3922700    404.18432   -1310.4817    15.934702    -1294.547 
 3922800     383.5656   -1309.6392    15.121822   -1294.5174 
 3922900    386.25898   -1309.7259    15.228007   -1294.4979 
 3923000    387.53626   -1309.7656    15.278363   -1294.4872 
 3923100    373.66973   -1309.2175    14.731684   -1294.4858 
 3923200    383.85791   -1309.6193    15.133346    -1294.486 
 3923300    371.49437   -1309.1379    14.645922    -1294.492 
 3923400    365.42012   -1308.9025    14.406449    -1294.496 
 3923500    402.59516   -1310.3687     15.87205   -1294.4966 
 3923600    393.41707   -1310.0274     15.51021   -1294.5172 
 3923700    386.34261   -1309.7882    15.231304   -1294.5569 
 3923800     385.2525   -1309.8012    15.188327   -1294.6128 
 3923900    384.44433   -1309.8433    15.156466   -1294.6868 
 3924000    373.13205     -1309.49    14.710486   -1294.7796 
 3924100    379.91409   -1309.8632    14.977864   -1294.8853 
 3924200    409.82725   -1311.1803    16.157171   -1295.0231 
 3924300    399.99912   -1310.9821    15.769703   -1295.2124 
 3924400    379.91387   -1310.4148    14.977855   -1295.4369 
 3924500    359.34745   -1309.8371    14.167037   -1295.6701 
 3924600    377.00042   -1310.7632    14.862994   -1295.9002 
 3924700    395.18568   -1311.7309    15.579936   -1296.1509 
 3924800    353.92293   -1310.3463    13.953179   -1296.3932 
 3924900    344.32991   -1310.1649    13.574981   -1296.5899 
 3925000    355.67565   -1310.7719    14.022279   -1296.7496 
 3925100    365.81208   -1311.3067    14.421901   -1296.8848 
 3925200    362.17034    -1311.276    14.278328   -1296.9977 
 3925300    372.51395   -1311.7771    14.686118    -1297.091 
 3925400    370.83907   -1311.7917    14.620087   -1297.1716 
 3925500    380.54193   -1312.2444    15.002616   -1297.2418 
 3925600    369.65345   -1311.8803    14.573345    -1297.307 
 3925700    357.03788   -1311.4344    14.075984   -1297.3584 
 3925800    359.15357   -1311.5507    14.159394   -1297.3913 
 3925900    350.18423   -1311.2125    13.805783   -1297.4067 
 3926000    355.04752   -1311.3986    13.997516   -1297.4011 
 3926100     362.4123   -1311.6648    14.287867    -1297.377 
 3926200    381.06457    -1312.363    15.023221   -1297.3398 
 3926300    401.02876   -1313.1118    15.810296   -1297.3015 
 3926400    352.63933   -1311.1775    13.902575    -1297.275 
 3926500    337.94234   -1310.5571    13.323155    -1297.234 
 3926600    373.27012   -1311.8769     14.71593   -1297.1609 
 3926700    374.20219    -1311.825    14.752676   -1297.0723 
 3926800    365.19818   -1311.3748    14.397699   -1296.9771 
 3926900    384.65698   -1312.0304    15.164849   -1296.8655 
 3927000    369.22915   -1311.3034    14.556617   -1296.7468 
 3927100    357.11521   -1310.6995    14.079033   -1296.6204 
 3927200     393.1809   -1311.9674    15.500899   -1296.4665 
 3927300    379.12427   -1311.2499    14.946726   -1296.3032 
 3927400    358.94114   -1310.2932    14.151019   -1296.1422 
 3927500    370.46953   -1310.5675    14.605518    -1295.962 
 3927600    372.73165   -1310.4583    14.694701   -1295.7636 
 3927700    360.82046    -1309.787     14.22511   -1295.5619 
 3927800    389.37569   -1310.7015    15.350881   -1295.3506 
 3927900    401.02178    -1310.951    15.810021    -1295.141 
 3928000    395.96426   -1310.5777    15.610631   -1294.9671 
 3928100    407.90681   -1310.9046    16.081459   -1294.8231 
 3928200    382.40261   -1309.7934    15.075972   -1294.7174 
 3928300    367.21538   -1309.1129    14.477226   -1294.6357 
 3928400    396.90116   -1310.2059    15.647568   -1294.5583 
 3928500    396.16673   -1310.1188    15.618614   -1294.5002 
 3928600    357.22189   -1308.5446    14.083239   -1294.4614 
 3928700     362.8352   -1308.7208     14.30454   -1294.4162 
 3928800    408.88693   -1310.4832    16.120099   -1294.3631 
 3928900     412.1632   -1310.5798    16.249264   -1294.3305 
 3929000    393.63044   -1309.8406    15.518622    -1294.322 
 3929100    393.06397   -1309.8178    15.496289   -1294.3215 
 3929200    423.50658   -1311.0257    16.696469   -1294.3292 
 3929300    425.91433   -1311.1568    16.791393   -1294.3654 
 3929400    406.50613   -1310.4548    16.026237   -1294.4285 
 3929500    392.22953    -1309.966    15.463392   -1294.5026 
 3929600    373.14146   -1309.2837    14.710857   -1294.5729 
 3929700    393.90277   -1310.1622    15.529358   -1294.6328 
 3929800    407.43565   -1310.7631    16.062883   -1294.7002 
 3929900    363.86658   -1309.1193    14.345201   -1294.7741 
 3930000    378.53539   -1309.7534     14.92351   -1294.8298 
 3930100    401.98495   -1310.7306    15.847993   -1294.8826 
 3930200    400.70231   -1310.7441    15.797426   -1294.9467 
 3930300    379.28389   -1309.9705    14.953019   -1295.0175 
 3930400     386.2599    -1310.311    15.228043   -1295.0829 
 3930500    396.59461   -1310.7853    15.635482   -1295.1499 
 3930600    406.46936    -1311.252    16.024788   -1295.2272 
 3930700    391.06944   -1310.7375    15.417656   -1295.3198 
 3930800     363.6733   -1309.7475    14.337581   -1295.4099 
 3930900      392.059   -1310.9458    15.456669   -1295.4891 
 3931000    381.15034   -1310.6007    15.026602   -1295.5741 
 3931100    371.99888   -1310.3193    14.665812   -1295.6535 
 3931200    382.45003   -1310.8046    15.077842   -1295.7268 
 3931300    388.00849   -1311.0973     15.29698   -1295.8003 
 3931400    387.42892   -1311.1528    15.274131   -1295.8787 
 3931500    374.67782   -1310.7309    14.771427   -1295.9594 
 3931600    390.85796   -1311.4474    15.409319   -1296.0381 
 3931700    394.16868   -1311.6688    15.539842    -1296.129 
 3931800    367.97929   -1310.7355    14.507342   -1296.2282 
 3931900    363.56371   -1310.6533    14.333261   -1296.3201 
 3932000    373.83806   -1311.1441     14.73832   -1296.4058 
 3932100    375.20867   -1311.2842    14.792356   -1296.4918 
 3932200    378.05271   -1311.4832     14.90448   -1296.5787 
 3932300    363.34277   -1310.9917     14.32455   -1296.6671 
 3932400    351.41422   -1310.5972    13.854275   -1296.7429 
 3932500    372.54004   -1311.4915    14.687147   -1296.8044 
 3932600       350.15   -1310.6612    13.804434   -1296.8568 
 3932700      348.879   -1310.6383    13.754326   -1296.8839 
 3932800    390.41541   -1312.2776    15.391871   -1296.8857 
 3932900    373.18297   -1311.5925    14.712494     -1296.88 
 3933000    363.21181   -1311.1782    14.319387   -1296.8588 
 3933100    374.83038   -1311.5885    14.777442    -1296.811 
 3933200    380.41785   -1311.7373    14.997724   -1296.7396 
 3933300    370.32093   -1311.2464     14.59966   -1296.6468 
 3933400    353.66099   -1310.4729    13.942853   -1296.5301 
 3933500     371.1927   -1311.0069    14.634029   -1296.3729 
 3933600    373.34398   -1310.8978    14.718842    -1296.179 
 3933700     386.2643   -1311.1888    15.228217   -1295.9606 
 3933800    407.89831   -1311.7991    16.081123    -1295.718 
 3933900    374.46463   -1310.2547    14.763023   -1295.4916 
 3934000    389.78473    -1310.637    15.367007     -1295.27 
 3934100    378.87945   -1309.9882    14.937074   -1295.0512 
 3934200    381.13828   -1309.8709    15.026127   -1294.8448 
 3934300    392.76115   -1310.1267    15.484351   -1294.6424 
 3934400       388.45   -1309.7698    15.314386   -1294.4554 
 3934500    393.13263   -1309.7854    15.498996   -1294.2864 
 3934600    418.48168    -1310.625    16.498366   -1294.1266 
 3934700     395.3306   -1309.5817     15.58565   -1293.9961 
 3934800    374.95983   -1308.6679    14.782545   -1293.8853 
 3934900    413.93063   -1310.0887    16.318944   -1293.7697 
 3935000    423.68299   -1310.3687    16.703424   -1293.6653 
 3935100    391.58307   -1309.0269    15.437906    -1293.589 
 3935200    395.39051   -1309.1063    15.588012   -1293.5183 
 3935300    410.84318   -1309.6443    16.197223   -1293.4471 
 3935400    406.52555   -1309.4129    16.027003   -1293.3859 
 3935500    419.18109     -1309.86    16.525939   -1293.3341 
 3935600    412.82312   -1309.5727    16.275281   -1293.2975 
 3935700    389.83925   -1308.6412    15.369157    -1293.272 
 3935800    415.22684   -1309.6131    16.370046   -1293.2431 
 3935900    427.79023   -1310.0895    16.865349   -1293.2242 
 3936000    390.85647   -1308.6335     15.40926   -1293.2243 
 3936100    393.45572   -1308.7325    15.511734   -1293.2208 
 3936200    407.89774   -1309.2935    16.081101   -1293.2124 
 3936300     399.7486   -1308.9671    15.759826   -1293.2072 
 3936400    432.60577   -1310.2601    17.055199   -1293.2049 
 3936500    427.73346     -1310.09    16.863111   -1293.2269 
 3936600    397.40357   -1308.9372    15.667375   -1293.2698 
 3936700    404.75561   -1309.2733    15.957224    -1293.316 
 3936800     396.9175   -1309.0171    15.648212   -1293.3689 
 3936900    391.54736   -1308.8597    15.436498   -1293.4232 
 3937000    388.64369   -1308.7984    15.322022   -1293.4764 
 3937100     387.9431   -1308.8202    15.294402   -1293.5258 
 3937200     403.9882   -1309.5007     15.92697   -1293.5737 
 3937300    419.29511   -1310.1636    16.530435   -1293.6332 
 3937400    412.83806   -1309.9922     16.27587   -1293.7163 
 3937500    409.42003   -1309.9628    16.141116   -1293.8217 
 3937600    398.23938   -1309.6481    15.700327   -1293.9477 
 3937700    394.55199   -1309.6419    15.554953    -1294.087 
 3937800    380.62879   -1309.2416     15.00604   -1294.2356 
 3937900    370.06737   -1308.9677    14.589664    -1294.378 
 3938000    392.94151   -1310.0057    15.491461   -1294.5142 
 3938100    427.91703   -1311.5384    16.870348    -1294.668 
 3938200    412.85824   -1311.1318    16.276665   -1294.8552 
 3938300    385.76889   -1310.2552    15.208685   -1295.0465 
 3938400    389.04152   -1310.5666    15.337707   -1295.2289 
 3938500    386.74869   -1310.6509    15.247313   -1295.4036 
 3938600    385.65709   -1310.7701    15.204278   -1295.5658 
 3938700    372.02153   -1310.3767    14.666705     -1295.71 
 3938800    359.70978   -1310.0058    14.181322   -1295.8245 
 3938900    349.70716   -1309.6901    13.786976   -1295.9031 
 3939000    351.00133   -1309.7814    13.837997   -1295.9434 
 3939100    350.95456   -1309.7819    13.836153   -1295.9457 
 3939200     385.0629   -1311.0922    15.180852   -1295.9113 
 3939300    367.66519   -1310.3494    14.494959   -1295.8545 
 3939400    369.85129   -1310.3541    14.581145   -1295.7729 
 3939500    410.21146   -1311.8276    16.172318   -1295.6553 
 3939600    396.22373   -1311.1463    15.620861   -1295.5255 
 3939700    366.23944   -1309.8309     14.43875   -1295.3922 
 3939800    383.95694   -1310.3643    15.137251    -1295.227 
 3939900    381.82603   -1310.0874    15.053241   -1295.0341 
 3940000    403.40781   -1310.7202    15.904088   -1294.8162 
 3940100    384.07964   -1309.7335    15.142088   -1294.5914 
 3940200    401.25351   -1310.1849    15.819157   -1294.3658 
 3940300    396.39016   -1309.7675    15.627422   -1294.1401 
 3940400    373.94377    -1308.682    14.742488   -1293.9396 
 3940500    392.07567   -1309.2019    15.457326   -1293.7445 
 3940600    416.21793   -1309.9699    16.409119   -1293.5608 
 3940700    424.63457   -1310.1491    16.740939   -1293.4081 
 3940800    416.53089    -1309.718    16.421457   -1293.2965 
 3940900    401.79983   -1309.0544    15.840695   -1293.2137 
 3941000    396.15352   -1308.7615    15.618093   -1293.1434 
 3941100    416.03295   -1309.4781    16.401826   -1293.0763 
 3941200    416.02328   -1309.4219    16.401445   -1293.0205 
 3941300     386.3021   -1308.2057    15.229707    -1292.976 
 3941400    412.39498    -1309.182    16.258402   -1292.9236 
 3941500    437.17631   -1310.1086    17.235389   -1292.8732 
 3941600    419.39836   -1309.3785    16.534505    -1292.844 
 3941700     429.3646   -1309.7533    16.927418   -1292.8258 
 3941800    438.46232   -1310.1089     17.28609   -1292.8228 
 3941900    422.50009   -1309.4962    16.656789   -1292.8394 
 3942000    430.51163   -1309.8395    16.972639   -1292.8669 
 3942100    410.02487   -1309.0713    16.164961   -1292.9063 
 3942200    398.76928   -1308.6642    15.721217    -1292.943 
 3942300    411.60172   -1309.1989    16.227128   -1292.9718 
 3942400    396.27846   -1308.6213    15.623018   -1292.9982 
 3942500     390.7796   -1308.4189    15.406229   -1293.0127 
 3942600     410.6849   -1309.2037    16.190983   -1293.0127 
 3942700    403.64242   -1308.9221    15.913338   -1293.0087 
 3942800     396.6245   -1308.6337    15.636661    -1292.997 
 3942900    443.71388   -1310.4676    17.493129   -1292.9745 
 3943000    448.15394   -1310.6391    17.668175   -1292.9709 
 3943100    429.44973   -1309.9263    16.930774   -1292.9955 
 3943200    406.54312   -1309.0614    16.027696   -1293.0337 
 3943300    407.80843    -1309.148     16.07758   -1293.0704 
 3943400     421.3384   -1309.7188     16.61099   -1293.1078 
 3943500    409.38565   -1309.2932    16.139761   -1293.1534 
 3943600    400.27169   -1308.9803    15.780449   -1293.1999 
 3943700    406.43343   -1309.2649    16.023372   -1293.2415 
 3943800    414.42186   -1309.6217     16.33831   -1293.2834 
 3943900     410.3702   -1309.5083    16.178576   -1293.3297 
 3944000    433.91391   -1310.4891    17.106771   -1293.3823 
 3944100    442.03148   -1310.8881    17.426801   -1293.4613 
 3944200    403.34205   -1309.4691    15.901496   -1293.5676 
 3944300    385.91562   -1308.8858     15.21447   -1293.6713 
 3944400    413.85325   -1310.0875    16.315893   -1293.7716 
 3944500    389.84525   -1309.2493    15.369393   -1293.8799 
 3944600    372.65976   -1308.6641    14.691867   -1293.9722 
 3944700    397.13228   -1309.7026     15.65668   -1294.0459 
 3944800     413.1939   -1310.4044    16.289898   -1294.1145 
 3944900    427.44116   -1311.0416    16.851588     -1294.19 
 3945000    415.13345   -1310.6459    16.366364   -1294.2796 
 3945100    393.47514   -1309.8817    15.512499   -1294.3692 
 3945200    414.59703   -1310.7967    16.345216   -1294.4515 
 3945300    408.20987   -1310.6314    16.093407    -1294.538 
 3945400    401.36917   -1310.4446    15.823716   -1294.6209 
 3945500    417.55238   -1311.1622    16.461729   -1294.7005 
 3945600    413.82862   -1311.1003    16.314922   -1294.7854 
 3945700    401.68244   -1310.7064    15.836067   -1294.8703 
 3945800    390.17156   -1310.3286    15.382258   -1294.9464 
 3945900    379.42801   -1309.9621      14.9587   -1295.0034 
 3946000    396.33483   -1310.6633    15.625241   -1295.0381 
 3946100    387.12195   -1310.3175    15.262029   -1295.0555 
 3946200    393.44866   -1310.5624    15.511455   -1295.0509 
 3946300    377.48626   -1309.9057    14.882148   -1295.0235 
 3946400    377.55473   -1309.8489    14.884848    -1294.964 
 3946500     407.9061   -1310.9451    16.081431   -1294.8636 
 3946600    398.27651   -1310.4374     15.70179   -1294.7356 
 3946700    388.60195   -1309.9057    15.320377   -1294.5853 
 3946800    412.92571   -1310.6725    16.279325   -1294.3932 
 3946900     382.9422   -1309.2787    15.097245   -1294.1814 
 3947000    404.05854   -1309.8728    15.929743   -1293.9431 
 3947100    426.47679   -1310.4857    16.813568   -1293.6721 
 3947200     420.5324   -1309.9863    16.579214   -1293.4071 
 3947300    399.20837   -1308.9048    15.738528   -1293.1663 
 3947400    422.20565     -1309.58    16.645181   -1292.9349 
 3947500    427.54535   -1309.5725    16.855695   -1292.7168 
 3947600     404.5012   -1308.4809    15.947195   -1292.5337 
 3947700    396.04457   -1307.9844    15.613797   -1292.3706 
 3947800    412.55401   -1308.4757    16.264671   -1292.2111 
 3947900    410.18108   -1308.2323     16.17112   -1292.0612 
 3948000    429.81745   -1308.8682    16.945271   -1291.9229 
 3948100    430.53395   -1308.7741    16.973519   -1291.8006 
 3948200    411.88905   -1307.9385    16.238456      -1291.7 
 3948300    445.64007   -1309.1726    17.569067   -1291.6035 
 3948400    454.05198   -1309.4261    17.900702   -1291.5254 
 3948500    435.57909    -1308.649     17.17242   -1291.4765 
 3948600    405.05638   -1307.4097    15.969082   -1291.4406 
 3948700    451.42405   -1309.1942    17.797097   -1291.3971 
 3948800    465.95956   -1309.7406     18.37015   -1291.3705 
 3948900     450.6988   -1309.1456    17.768505   -1291.3771 
 3949000    423.77395   -1308.1098     16.70701   -1291.4027 
 3949100    417.48992   -1307.8864    16.459266   -1291.4272 
 3949200     416.9873   -1307.8846    16.439451   -1291.4452 
 3949300    412.23119   -1307.7077    16.251944   -1291.4557 
 3949400    411.34859   -1307.6729    16.217148   -1291.4557 
 3949500    424.01102   -1308.1611    16.716357   -1291.4448 
 3949600    449.04942    -1309.135    17.703479   -1291.4316 
 3949700     446.7025   -1309.0445    17.610953   -1291.4336 
 3949800    434.04626   -1308.5637    17.111989   -1291.4517 
 3949900    420.83896   -1308.0673      16.5913    -1291.476 
 3950000     428.5927   -1308.3948    16.896986   -1291.4978 
 3950100    478.69499   -1310.4005    18.872236   -1291.5283 
 3950200    490.45579   -1310.9454    19.335898   -1291.6095 
 3950300     441.1479   -1309.1405    17.391966   -1291.7486 
 3950400    407.70977   -1307.9753     16.07369   -1291.9016 
 3950500    419.33378   -1308.5905    16.531959   -1292.0585 
 3950600    413.09371   -1308.5124    16.285949   -1292.2265 
 3950700    432.45258   -1309.4535    17.049159   -1292.4044 
 3950800    440.81919   -1309.9921    17.379007   -1292.6131 
 3950900    401.12491   -1308.6484    15.814086   -1292.8344 
 3951000    411.76639   -1309.2759     16.23362   -1293.0423 
 3951100    428.12096   -1310.1366    16.878388   -1293.2582 
 3951200    407.58207   -1309.5421    16.068656   -1293.4734 
 3951300    398.42678   -1309.3737    15.707715    -1293.666 
 3951400    398.87994    -1309.559     15.72558   -1293.8334 
 3951500    403.74459    -1309.893    15.917366   -1293.9756 
 3951600    420.02853   -1310.6595    16.559349   -1294.1002 
 3951700    403.33281   -1310.1121    15.901132   -1294.2109 
 3951800    406.54265   -1310.3252    16.027677   -1294.2975 
 3951900    417.09984   -1310.8102    16.443887   -1294.3663 
 3952000    397.93789   -1310.1094     15.68844    -1294.421 
 3952100    371.89644   -1309.1085    14.661773   -1294.4467 
 3952200    403.28617   -1310.3338    15.899293   -1294.4346 
 3952300    406.71706   -1310.4322    16.034553   -1294.3977 
 3952400    407.70597   -1310.4148    16.073541   -1294.3412 
 3952500    418.11169   -1310.7476    16.483779   -1294.2638 
 3952600    397.73382   -1309.8506    15.680395   -1294.1702 
 3952700    370.59071   -1308.6637    14.610296   -1294.0534 
 3952800    401.02508   -1309.6971    15.810151    -1293.887 
 3952900    414.25823   -1310.0022    16.331859   -1293.6703 
 3953000    396.25057    -1309.051    15.621919   -1293.4291 
 3953100    410.35865   -1309.3373    16.178121   -1293.1592 
 3953200    441.77849   -1310.2723    17.416827   -1292.8555 
 3953300    447.05108   -1310.1866    17.624696   -1292.5619 
 3953400    423.96399    -1309.028    16.714502   -1292.3135 
 3953500      406.707   -1308.1454    16.034157   -1292.1112 
 3953600    443.49776   -1309.4164    17.484608   -1291.9318 
 3953700     451.3157   -1309.5843    17.792825   -1291.7915 
 3953800    436.33904    -1308.902    17.202381   -1291.6996 
 3953900    435.86776   -1308.8183    17.183801   -1291.6345 
 3954000    455.22205   -1309.5324    17.946831   -1291.5856 
 3954100    422.29665   -1308.2056    16.648769   -1291.5568 
 3954200    399.73068   -1307.2852     15.75912   -1291.5261 
 3954300    430.47346   -1308.4476    16.971134   -1291.4765 
 3954400    438.71574   -1308.7194     17.29608   -1291.4233 
 3954500    436.34887   -1308.5775    17.202768   -1291.3747 
 3954600    460.04055   -1309.4662    18.136797   -1291.3294 
 3954700    469.01783   -1309.7924     18.49072   -1291.3017 
 3954800     438.3707   -1308.5804    17.282477   -1291.2979 
 3954900    428.81168   -1308.2023    16.905619   -1291.2967 
 3955000    450.58479   -1309.0554     17.76401   -1291.2914 
 3955100    422.61611   -1307.9533    16.661363   -1291.2919 
 3955200    409.43866   -1307.4245    16.141851   -1291.2826 
 3955300    419.20309   -1307.7792    16.526807   -1291.2524 
 3955400    459.55573   -1309.3245    18.117683   -1291.2068 
 3955500    442.77697   -1308.6263    17.456192   -1291.1701 
 3955600    415.18114   -1307.5053    16.368244   -1291.1371 
 3955700    436.64097   -1308.3022    17.214284    -1291.088 
 3955800    441.77039   -1308.4472    17.416508   -1291.0307 
 3955900    446.07931   -1308.5587    17.586384   -1290.9723 
 3956000    446.95757   -1308.5367    17.621009   -1290.9157 
 3956100    443.07106   -1308.3288    17.467786    -1290.861 
 3956200    424.13467   -1307.5275    16.721231   -1290.8063 
 3956300    457.41728   -1308.7715    18.033376   -1290.7381 
 3956400    454.34921    -1308.585     17.91242   -1290.6726 
 3956500     429.0714   -1307.5313    16.915858   -1290.6155 
 3956600    438.91037    -1307.852    17.303754   -1290.5482 
 3956700    460.86368   -1308.6411    18.169248   -1290.4719 
 3956800     470.4833     -1308.95    18.548496   -1290.4015 
 3956900    468.05469   -1308.8025    18.452749   -1290.3497 
 3957000    472.39325   -1308.9404    18.623794   -1290.3166 
 3957100    456.56595   -1308.3055    17.999813   -1290.3056 
 3957200     449.6967    -1308.036    17.728997    -1290.307 
 3957300    473.95771   -1309.0034    18.685472   -1290.3179 
 3957400    475.50137   -1309.1035     18.74633   -1290.3572 
 3957500    433.75806   -1307.5245    17.100627   -1290.4239 
 3957600    434.42199   -1307.6179    17.126802   -1290.4911 
 3957700    456.27609   -1308.5532    17.988385   -1290.5648 
 3957800    421.89097    -1307.286    16.632775   -1290.6533 
 3957900    402.65018   -1306.6039    15.874219   -1290.7297 
 3958000    433.99686   -1307.8993    17.110041   -1290.7893 
 3958100     454.8705   -1308.7846    17.932971   -1290.8516 
 3958200    456.87375   -1308.9431    18.011948   -1290.9312 
 3958300    449.55621   -1308.7532    17.723459   -1291.0297 
 3958400    454.78412   -1309.0747    17.929566   -1291.1451 
 3958500    451.37062   -1309.0763    17.794991   -1291.2813 
 3958600     450.6279   -1309.2025    17.765709   -1291.4368 
 3958700    431.31487   -1308.6091    17.004306   -1291.6048 
 3958800     448.9459   -1309.4747    17.699398   -1291.7753 
 3958900    471.45719   -1310.5589    18.586891    -1291.972 
 3959000    438.92904   -1309.4966     17.30449   -1292.1921 
 3959100    406.64426   -1308.4255    16.031683   -1292.3938 
 3959200    432.30702   -1309.6164    17.043421    -1292.573 
 3959300    412.80169   -1309.0172    16.274436   -1292.7427 
 3959400    414.72213     -1309.23    16.350148   -1292.8798 
 3959500    454.45946   -1310.9224    17.916766   -1293.0056 
 3959600    415.13608   -1309.4973    16.366468   -1293.1308 
 3959700    377.24128   -1308.0916     14.87249   -1293.2192 
 3959800    418.02694   -1309.7452    16.480438   -1293.2647 
 3959900    438.54538     -1310.58    17.289364   -1293.2906 
 3960000     445.0129   -1310.8543    17.544342     -1293.31 
 3960100    450.78267   -1311.0993    17.771811   -1293.3275 
 3960200    460.47352   -1311.5033    18.153867   -1293.3494 
 3960300    429.53728   -1310.3126    16.934226   -1293.3784 
 3960400    420.56234   -1309.9755    16.580394   -1293.3951 
 3960500    435.56041   -1310.5651    17.171683   -1293.3934 
 3960600    401.15568   -1309.1928      15.8153   -1293.3775 
 3960700    386.86714   -1308.5806    15.251983   -1293.3286 
 3960800     423.9066   -1309.9385     16.71224   -1293.2263 
 3960900    429.87281   -1310.0255    16.947454   -1293.0781 
 3961000    417.98849   -1309.3725    16.478922   -1292.8936 
 3961100    441.07665   -1310.0453    17.389158   -1292.6562 
 3961200    461.52013   -1310.5605    18.195129   -1292.3654 
 3961300    475.72255   -1310.8011     18.75505    -1292.046 
 3961400    465.77457   -1310.0905    18.362857   -1291.7276 
 3961500    450.63689   -1309.1953    17.766064   -1291.4292 
 3961600    446.06918   -1308.7337    17.585985   -1291.1477 
 3961700    465.61001   -1309.2328    18.356369   -1290.8765 
 3961800    455.97621   -1308.6135    17.976563   -1290.6369 
 3961900    457.53225   -1308.4733    18.037909   -1290.4354 
 3962000    463.68599   -1308.5445    18.280516    -1290.264 
 3962100    464.60132   -1308.4433    18.316602   -1290.1267 
 3962200    457.53115   -1308.0582    18.037865   -1290.0203 
 3962300    476.55102   -1308.7238    18.787711   -1289.9361 
 3962400    487.94706   -1309.1168    19.236993   -1289.8798 
 3962500    431.50832   -1306.8667    17.011932   -1289.8548 
 3962600    444.44901   -1307.3467    17.522111   -1289.8246 
 3962700    473.20697   -1308.4463    18.655874   -1289.7904 
 3962800    461.62974   -1307.9713     18.19945   -1289.7718 
 3962900    475.14741   -1308.4964    18.732375   -1289.7641 
 3963000    452.87527   -1307.6249     17.85431   -1289.7706 
 3963100    443.39757   -1307.2578    17.480658   -1289.7771 
 3963200    467.36437   -1308.2031    18.425534   -1289.7776 
 3963300    479.29538   -1308.6839    18.895906    -1289.788 
 3963400    483.48241   -1308.8791    19.060977   -1289.8182 
 3963500    497.57729   -1309.4911    19.616658   -1289.8744 
 3963600    478.98138   -1308.8463    18.883527   -1289.9627 
 3963700    481.28511   -1309.0454     18.97435    -1290.071 
 3963800    458.83131   -1308.2866    18.089124   -1290.1975 
 3963900    426.28562   -1307.1233    16.806031   -1290.3173 
 3964000     438.9114   -1307.7197    17.303794   -1290.4159 
 3964100    468.67269   -1308.9861    18.477113    -1290.509 
 3964200     472.8947   -1309.2601    18.643563   -1290.6165 
 3964300    445.64908   -1308.3029    17.569423   -1290.7335 
 3964400    441.80926   -1308.2606    17.418041   -1290.8426 
 3964500     436.8216    -1308.164    17.221405   -1290.9426 
 3964600    450.45923   -1308.7913     17.75906   -1291.0323 
 3964700    474.90448   -1309.8505    18.722798   -1291.1277 
 3964800    436.24506   -1308.4354    17.198675   -1291.2367 
 3964900     414.5263    -1307.671    16.342428   -1291.3286 
 3965000    468.97401   -1309.8942    18.488993   -1291.4052 
 3965100    473.84885   -1310.1833     18.68118   -1291.5022 
 3965200    452.75384   -1309.4687    17.849523   -1291.6192 
 3965300    449.55147   -1309.4713    17.723272   -1291.7481 
 3965400    444.35562   -1309.4075    17.518429    -1291.889 
 3965500    444.77327   -1309.5795    17.534894   -1292.0446 
 3965600    424.96246   -1308.9675    16.753866   -1292.2136 
 3965700    414.37639   -1308.7196    16.336517    -1292.383 
 3965800    417.97593   -1309.0288    16.478427   -1292.5504 
 3965900    434.76998    -1309.865    17.140521   -1292.7244 
 3966000    422.27345   -1309.5574    16.647854   -1292.9096 
 3966100    408.96889   -1309.2107     16.12333   -1293.0874 
 3966200    432.05892   -1310.2919     17.03364   -1293.2583 
 3966300    422.50443   -1310.0891     16.65696   -1293.4322 
 3966400    400.58947   -1309.3799    15.792977   -1293.5869 
 3966500    416.08999   -1310.1194    16.404075   -1293.7154 
 3966600    428.44673   -1310.7191    16.891231   -1293.8279 
 3966700    413.80536   -1310.2378    16.314005   -1293.9238 
 3966800    413.16477   -1310.2808     16.28875    -1293.992 
 3966900    435.91727     -1311.22    17.185752   -1294.0343 
 3967000    436.25853   -1311.2596    17.199207   -1294.0604 
 3967100    428.86876   -1310.9769     16.90787    -1294.069 
 3967200    420.78053    -1310.642    16.588996    -1294.053 
 3967300    421.60137   -1310.6262    16.621357   -1294.0049 
 3967400     409.4725    -1310.063    16.143185   -1293.9198 
 3967500    396.41695   -1309.4189    15.628478   -1293.7904 
 3967600    423.78988   -1310.3057    16.707638    -1293.598 
 3967700    448.46635    -1311.023    17.680492   -1293.3425 
 3967800    456.12109    -1311.033    17.982275   -1293.0507 
[...]
 7220100    14.603438   -1364.9179   0.57573098   -1364.3422 
 7220200    14.480839   -1364.9244   0.57089758   -1364.3535 
 7220300    14.252399   -1364.9291   0.56189148   -1364.3672 
 7220400     14.18983   -1364.9461   0.55942473   -1364.3867 
 7220500    13.940302   -1364.9477   0.54958726   -1364.3981 
 7220600    13.954315    -1364.942    0.5501397   -1364.3918 
 7220700    13.294649   -1364.9508   0.52413281   -1364.4267 
 7220800    14.216379   -1364.9797   0.56047142   -1364.4192 
 7220900    13.375476   -1364.9883   0.52731937    -1364.461 
 7221000    13.391593   -1364.9843   0.52795479   -1364.4563 
 7221100    13.263774   -1364.9914    0.5229156   -1364.4685 
 7221200    13.997778   -1365.0177    0.5518532   -1364.4659 
 7221300    13.173759    -1364.979   0.51936683   -1364.4596 
 7221400    13.371092   -1364.9823   0.52714652   -1364.4551 
 7221500    13.892451   -1365.0363   0.54770078   -1364.4886 
 7221600    13.400807   -1365.0254   0.52831802   -1364.4971 
 7221700     13.00174   -1365.0193   0.51258506   -1364.5067 
 7221800    13.110985   -1365.0513     0.516892   -1364.5344 
 7221900    12.226881   -1365.0232   0.48203676   -1364.5412 
 7222000    12.049788   -1365.0053     0.475055   -1364.5302 
 7222100    13.240282   -1365.0449   0.52198942   -1364.5229 
 7222200    12.543056   -1365.0221   0.49450177   -1364.5276 
 7222300    11.897963   -1364.9952   0.46906939   -1364.5262 
 7222400    11.972136   -1365.0184    0.4719936   -1364.5464 
 7222500    12.424908   -1365.0386   0.48984386   -1364.5487 
 7222600    12.140063   -1365.0222   0.47861404   -1364.5436 
 7222700    11.196394   -1365.0112   0.44141047   -1364.5698 
 7222800    12.076094     -1365.04   0.47609208   -1364.5639 
 7222900    11.732468   -1365.0566   0.46254485    -1364.594 
 7223000    12.405931   -1365.0484   0.48909569   -1364.5593 
 7223100    11.683652   -1365.0361   0.46062031   -1364.5755 
 7223200    11.910224   -1365.0345   0.46955277    -1364.565 
 7223300    12.330851   -1365.0552   0.48613572   -1364.5691 
 7223400    12.137067   -1365.0461    0.4784959   -1364.5676 
 7223500    12.849291   -1365.0625   0.50657488    -1364.556 
 7223600     13.20167   -1365.0732   0.52046718   -1364.5527 
 7223700    11.935215   -1365.0235   0.47053802    -1364.553 
 7223800    11.316679   -1365.0054   0.44615265   -1364.5593 
 7223900    11.898372   -1365.0291   0.46908553     -1364.56 
 7224000    12.674588   -1365.0407   0.49968732    -1364.541 
 7224100    11.829885   -1365.0168   0.46638548   -1364.5504 
 7224200    11.981027   -1365.0291   0.47234414   -1364.5567 
 7224300    12.761086    -1365.066   0.50309744   -1364.5629 
 7224400    11.850006   -1365.0336   0.46717872   -1364.5664 
 7224500    12.619126   -1365.0533   0.49750076   -1364.5558 
 7224600    12.118228   -1365.0644   0.47775317   -1364.5867 
 7224700    11.606489   -1365.0433   0.45757822   -1364.5858 
 7224800    11.259619   -1365.0444   0.44390308   -1364.6004 
 7224900    11.083028   -1365.0325   0.43694112   -1364.5956 
 7225000    10.867735   -1365.0342   0.42845334   -1364.6057 
 7225100    11.832649   -1365.0723   0.46649444   -1364.6058 
 7225200    11.172116   -1365.0602   0.44045333   -1364.6197 
 7225300    11.032917   -1365.0571   0.43496552   -1364.6221 
 7225400    11.638039   -1365.0916   0.45882205   -1364.6328 
 7225500    11.599698   -1365.1008    0.4573105   -1364.6435 
 7225600    11.783703   -1365.1053   0.46456476   -1364.6407 
 7225700    11.720874   -1365.0903   0.46208778   -1364.6282 
 7225800    10.782019   -1365.0572   0.42507403   -1364.6321 
 7225900    11.089484   -1365.0765   0.43719562   -1364.6393 
 7226000    11.766284   -1365.1177   0.46387802   -1364.6538 
 7226100    10.905585   -1365.0942   0.42994555   -1364.6643 
 7226200    10.429493   -1365.0778   0.41117593   -1364.6667 
 7226300    10.889054   -1365.0734    0.4292938   -1364.6441 
 7226400    11.093643   -1365.0621    0.4373596   -1364.6248 
 7226500    11.016256   -1365.0727   0.43430867   -1364.6384 
 7226600    11.948118   -1365.0992   0.47104672   -1364.6281 
 7226700    10.876948   -1365.0757   0.42881653   -1364.6469 
 7226800    10.822508   -1365.0592    0.4266703   -1364.6325 
 7226900    10.795132   -1365.0733   0.42559098   -1364.6477 
 7227000    11.070144   -1365.0891   0.43643317   -1364.6527 
 7227100    10.338463   -1365.0923   0.40758712   -1364.6847 
 7227200    10.167772   -1365.0979   0.40085775   -1364.6971 
 7227300    10.278308   -1365.1201   0.40521554   -1364.7149 
 7227400    10.230863   -1365.1277   0.40334507   -1364.7244 
 7227500    9.9241187   -1365.1155   0.39125187   -1364.7242 
 7227600    9.2006281   -1365.0971   0.36272873   -1364.7344 
 7227700    10.449696   -1365.1229   0.41197242   -1364.7109 
 7227800    10.706886   -1365.1219   0.42211194   -1364.6998 
 7227900    10.190616   -1365.1048   0.40175836    -1364.703 
 7228000    10.469285   -1365.1155   0.41274468   -1364.7028 
 7228100    10.248512   -1365.1187   0.40404087   -1364.7147 
 7228200    9.9839128   -1365.1028   0.39360921   -1364.7092 
 7228300    10.087564   -1365.1068   0.39769558   -1364.7092 
 7228400    9.9558834   -1365.1196   0.39250418   -1364.7271 
 7228500    9.8867393   -1365.1297   0.38977821   -1364.7399 
 7228600    9.9111653   -1365.1228   0.39074119   -1364.7321 
 7228700    9.9906332   -1365.1208   0.39387416   -1364.7269 
 7228800    10.400713   -1365.1259   0.41004129   -1364.7159 
 7228900    9.9327803   -1365.1039   0.39159335   -1364.7123 
 7229000    9.1328469   -1365.0955    0.3600565   -1364.7354 
 7229100    10.184886     -1365.14   0.40153245   -1364.7385 
 7229200     11.05936   -1365.1649   0.43600801   -1364.7289 
 7229300    9.3441232   -1365.1184   0.36838593     -1364.75 
 7229400    9.6350975   -1365.1334    0.3798574   -1364.7535 
 7229500     10.54472   -1365.1588   0.41571869    -1364.743 
 7229600    9.5429905   -1365.1336   0.37622614   -1364.7574 
 7229700    9.6729754   -1365.1264   0.38135071    -1364.745 
 7229800    10.032469   -1365.1608   0.39552351   -1364.7652 
 7229900    9.7730257   -1365.1584   0.38529513   -1364.7731 
 7230000    9.3095672   -1365.1358   0.36702358   -1364.7687 
 7230100    9.6133211   -1365.1675   0.37899888   -1364.7885 
 7230200    10.133232   -1365.1788   0.39949604   -1364.7793 
 7230300    9.8923802   -1365.1469    0.3900006   -1364.7569 
 7230400    9.4083836   -1365.1393   0.37091935   -1364.7684 
 7230500    9.5986081   -1365.1388   0.37841883   -1364.7604 
 7230600    9.4219444   -1365.1374   0.37145398   -1364.7659 
 7230700    8.8905134    -1365.138   0.35050266   -1364.7875 
 7230800    9.6794745   -1365.1766   0.38160694    -1364.795 
 7230900    9.9348675    -1365.187   0.39167564   -1364.7953 
 7231000    9.2693811   -1365.1546   0.36543927   -1364.7892 
 7231100    9.2688019   -1365.1463   0.36541644   -1364.7809 
 7231200    9.2070144   -1365.1389   0.36298051   -1364.7759 
 7231300    9.0931419   -1365.1379   0.35849116   -1364.7795 
 7231400    9.3757199   -1365.1431   0.36963161   -1364.7735 
 7231500    9.9361865   -1365.1542   0.39172764   -1364.7625 
 7231600    9.7804561   -1365.1464   0.38558807   -1364.7608 
 7231700    9.1490664   -1365.1326   0.36069594   -1364.7719 
 7231800    8.9022532   -1365.1297   0.35096549   -1364.7787 
 7231900    8.8754822   -1365.1436   0.34991007   -1364.7936 
 7232000    8.7993685   -1365.1728   0.34690933   -1364.8259 
 7232100    8.6549536   -1365.1962   0.34121587    -1364.855 
 7232200    9.1823026   -1365.1938   0.36200626   -1364.8318 
 7232300     8.435963   -1365.1767   0.33258231   -1364.8441 
 7232400    8.3710295   -1365.1812   0.33002235   -1364.8512 
 7232500    8.3454494   -1365.1889   0.32901387   -1364.8599 
 7232600    8.3525957   -1365.1886   0.32929561   -1364.8593 
 7232700    8.3309036   -1365.1935   0.32844041   -1364.8651 
 7232800    8.0182396   -1365.1909   0.31611384   -1364.8748 
 7232900    7.8904596    -1365.197    0.3110762   -1364.8859 
 7233000    7.9467683   -1365.1973   0.31329613    -1364.884 
 7233100    8.7014815   -1365.2139    0.3430502   -1364.8708 
 7233200    8.2515599   -1365.2052   0.32531234   -1364.8799 
 7233300    7.7495426   -1365.1852   0.30552064   -1364.8797 
 7233400    7.9028748   -1365.1958   0.31156566   -1364.8842 
 7233500    7.6190681    -1365.202   0.30037676   -1364.9016 
 7233600    7.3150438   -1365.1936    0.2883908   -1364.9052 
 7233700    7.7214368   -1365.2045   0.30441258   -1364.9001 
 7233800    7.8580484    -1365.225    0.3097984   -1364.9152 
 7233900    8.1490658   -1365.2292   0.32127157   -1364.9079 
 7234000    7.6672315     -1365.21   0.30227557   -1364.9078 
 7234100    8.0742633   -1365.2251   0.31832253   -1364.9068 
 7234200    8.5239736   -1365.2407   0.33605207   -1364.9046 
 7234300    7.4473357   -1365.2092   0.29360632   -1364.9156 
 7234400    7.5203136   -1365.2048   0.29648343   -1364.9083 
 7234500    7.6323298   -1365.2155    0.3008996   -1364.9146 
 7234600    7.8246654   -1365.2242    0.3084823   -1364.9158 
 7234700    7.7136039   -1365.2282   0.30410378   -1364.9241 
 7234800     7.846039   -1365.2208   0.30932494   -1364.9115 
 7234900    7.8490587   -1365.2188   0.30944399   -1364.9094 
 7235000    8.2011683   -1365.2306   0.32332568   -1364.9073 
 7235100    7.7193236   -1365.2213   0.30432927    -1364.917 
 7235200    7.0542854   -1365.1995   0.27811058   -1364.9214 
 7235300    7.0918917    -1365.208   0.27959318   -1364.9284 
 7235400    7.5218936    -1365.228   0.29654572   -1364.9315 
 7235500    7.0826543   -1365.2419     0.279229   -1364.9627 
 7235600    6.6535143   -1365.2288   0.26231044   -1364.9665 
 7235700    7.1627601   -1365.2385   0.28238712   -1364.9561 
 7235800    7.5585663   -1365.2499   0.29799152   -1364.9519 
 7235900    6.8979496   -1365.2279   0.27194714   -1364.9559 
 7236000     7.051632   -1365.2406   0.27800597   -1364.9626 
 7236100    7.1430109   -1365.2632   0.28160852   -1364.9816 
 7236200    6.8581071   -1365.2517   0.27037637   -1364.9814 
 7236300    6.2766675   -1365.2525    0.2474535    -1365.005 
 7236400    6.5848256   -1365.2646   0.25960243    -1365.005 
 7236500    6.4671647   -1365.2673   0.25496373   -1365.0123 
 7236600    6.7090276    -1365.273   0.26449901   -1365.0085 
 7236700    6.8154735   -1365.2909   0.26869557   -1365.0222 
 7236800    6.9993094   -1365.2864   0.27594318   -1365.0105 
 7236900    6.2435003   -1365.2621   0.24614591    -1365.016 
 7237000    6.9645297   -1365.2771   0.27457202   -1365.0025 
 7237100     6.893074   -1365.2696   0.27175492   -1364.9978 
 7237200    5.8761505   -1365.2435   0.23166338   -1365.0118 
 7237300    6.5163854   -1365.2559   0.25690422    -1364.999 
 7237400     6.345374   -1365.2528   0.25016221   -1365.0026 
 7237500    6.4216993   -1365.2544   0.25317129   -1365.0012 
 7237600    6.3812625   -1365.2646   0.25157709   -1365.0131 
 7237700    6.3181298   -1365.2576   0.24908812   -1365.0085 
 7237800    6.4570909   -1365.2628   0.25456658   -1365.0082 
 7237900    6.3274153   -1365.2654    0.2494542   -1365.0159 
 7238000    6.3058142   -1365.2736   0.24860259    -1365.025 
 7238100    6.2116915   -1365.2815   0.24489186   -1365.0366 
 7238200     6.629366   -1365.2821   0.26135841   -1365.0207 
 7238300    5.9447939   -1365.2788    0.2343696   -1365.0444 
 7238400    6.0575058   -1365.2914   0.23881319   -1365.0526 
 7238500    6.0954365   -1365.2928   0.24030859   -1365.0525 
 7238600     6.059289   -1365.2935    0.2388835   -1365.0547 
 7238700    5.7393955   -1365.2823    0.2262719    -1365.056 
 7238800    5.9822305   -1365.2927   0.23584551   -1365.0569 
 7238900    5.9199605   -1365.3037   0.23339056   -1365.0704 
 7239000    6.0019569   -1365.3099   0.23662322   -1365.0732 
 7239100    5.7384128   -1365.3069   0.22623316   -1365.0806 
 7239200    5.4455829    -1365.301   0.21468854   -1365.0863 
 7239300    5.0569434    -1365.294   0.19936668   -1365.0946 
 7239400    4.9272107   -1365.3006   0.19425205   -1365.1063 
 7239500     4.787499    -1365.308   0.18874401   -1365.1193 
 7239600    4.7173096   -1365.3085   0.18597684   -1365.1225 
 7239700    4.9211432   -1365.3123   0.19401284   -1365.1183 
 7239800    5.4968538   -1365.3244   0.21670986   -1365.1077 
 7239900    5.6243965   -1365.3257   0.22173814    -1365.104 
 7240000    5.3206977    -1365.323   0.20976502   -1365.1133 
 7240100    5.2333532   -1365.3234   0.20632152   -1365.1171 
 7240200    4.8708465   -1365.3232   0.19202993   -1365.1311 
 7240300    4.7094935   -1365.3184   0.18566869   -1365.1328 
 7240400    4.7491358   -1365.3189   0.18723157   -1365.1316 
 7240500    4.8373485   -1365.3312   0.19070929   -1365.1405 
 7240600    4.9996417   -1365.3467   0.19710759   -1365.1496 
 7240700    4.5541681   -1365.3384   0.17954509   -1365.1588 
 7240800    4.4033095   -1365.3349   0.17359759   -1365.1613 
 7240900    4.6349081   -1365.3484   0.18272821   -1365.1657 
 7241000    4.5872813   -1365.3509   0.18085056     -1365.17 
 7241100    4.5103388   -1365.3499   0.17781715   -1365.1721 
 7241200    4.2332048    -1365.343   0.16689132   -1365.1761 
 7241300    4.5258229   -1365.3519    0.1784276   -1365.1734 
 7241400    4.7058755   -1365.3599   0.18552606   -1365.1744 
 7241500    4.4680825   -1365.3471   0.17615122   -1365.1709 
 7241600    4.3114816   -1365.3425   0.16997733   -1365.1725 
 7241700    4.4727097   -1365.3504   0.17633365   -1365.1741 
 7241800    4.2908946    -1365.355    0.1691657   -1365.1858 
 7241900    3.8676659   -1365.3484   0.15248019    -1365.196 
 7242000    3.7540503   -1365.3509   0.14800097   -1365.2029 
 7242100    3.8819749   -1365.3701   0.15304432    -1365.217 
 7242200    3.9794183   -1365.3729   0.15688596   -1365.2161 
 7242300    3.3999066    -1365.361   0.13403909    -1365.227 
 7242400     3.763853   -1365.3779   0.14838744   -1365.2295 
 7242500    4.0782549   -1365.3931   0.16078253   -1365.2323 
 7242600    3.7619933   -1365.3815   0.14831412   -1365.2332 
 7242700    3.6595919    -1365.375   0.14427701   -1365.2308 
 7242800    3.7026312   -1365.3738   0.14597381   -1365.2278 
 7242900    3.6198202   -1365.3739   0.14270904   -1365.2311 
 7243000    3.4503324   -1365.3731   0.13602709   -1365.2371 
 7243100    3.3112326   -1365.3726   0.13054317   -1365.2421 
 7243200    3.4646695   -1365.3875   0.13659232   -1365.2509 
 7243300     3.678058   -1365.3972   0.14500503   -1365.2522 
 7243400    3.4338917   -1365.3946   0.13537893   -1365.2592 
 7243500    3.2551825   -1365.3909   0.12833343   -1365.2626 
 7243600    3.0230026   -1365.3876    0.1191799   -1365.2684 
 7243700    3.0172874   -1365.3995   0.11895458   -1365.2805 
 7243800    3.1447441   -1365.4107   0.12397947   -1365.2867 
 7243900    2.9931214   -1365.4084   0.11800185   -1365.2904 
 7244000    2.9347752   -1365.4101   0.11570159   -1365.2944 
 7244100    2.9657731   -1365.4118   0.11692366   -1365.2948 
 7244200    2.9365979   -1365.4066   0.11577344   -1365.2908 
 7244300    2.8012748   -1365.4036   0.11043842   -1365.2932 
 7244400    2.8668614   -1365.4089   0.11302413   -1365.2959 
 7244500    2.8647315   -1365.4112   0.11294016   -1365.2982 
 7244600    2.7682497   -1365.4087   0.10913643   -1365.2996 
 7244700    2.8010624   -1365.4121   0.11043005   -1365.3016 
 7244800    2.7518452   -1365.4122   0.10848969   -1365.3037 
 7244900    2.7400427   -1365.4106   0.10802439   -1365.3025 
 7245000    2.8962725    -1365.418   0.11418364   -1365.3038 
 7245100    2.8273032   -1365.4192   0.11146457   -1365.3077 
 7245200    2.8315068   -1365.4208    0.1116303   -1365.3091 
 7245300    2.7513839   -1365.4212   0.10847151   -1365.3127 
 7245400    2.4659689   -1365.4155  0.097219207   -1365.3182 
 7245500    2.5555326   -1365.4199    0.1007502   -1365.3191 
 7245600    2.4990423   -1365.4232  0.098523105   -1365.3247 
 7245700    2.3861118    -1365.422  0.094070895   -1365.3279 
 7245800    2.6033482   -1365.4318   0.10263529   -1365.3292 
 7245900    2.2875115   -1365.4295  0.090183639   -1365.3393 
 7246000    2.1186696   -1365.4253   0.08352716   -1365.3417 
 7246100    2.2023743   -1365.4311  0.086827164   -1365.3443 
 7246200     2.204857   -1365.4343   0.08692504   -1365.3474 
 7246300    2.1228261   -1365.4347  0.083691026    -1365.351 
 7246400    2.0739007   -1365.4374  0.081762174   -1365.3556 
 7246500    2.0316843   -1365.4387  0.080097822   -1365.3586 
 7246600    1.9124499   -1365.4397  0.075397085   -1365.3643 
 7246700     2.009843   -1365.4471  0.079236744   -1365.3679 
 7246800    1.8814574   -1365.4502  0.074175223   -1365.3761 
 7246900    1.8501303   -1365.4529  0.072940174     -1365.38 
 7247000    1.8046337   -1365.4519  0.071146499   -1365.3807 
 7247100    1.5881146   -1365.4481  0.062610375   -1365.3854 
 7247200    1.6525855   -1365.4537  0.065152098   -1365.3885 
 7247300     1.659198   -1365.4579  0.065412794   -1365.3925 
 7247400     1.614603   -1365.4591  0.063654665   -1365.3954 
 7247500    1.7140838   -1365.4639  0.067576629   -1365.3963 
 7247600    1.6139281   -1365.4636  0.063628058   -1365.3999 
 7247700    1.3912557   -1365.4612  0.054849343   -1365.4064 
 7247800     1.490484   -1365.4649  0.058761353   -1365.4061 
 7247900    1.3729615   -1365.4657  0.054128109   -1365.4115 
 7248000    1.3325719   -1365.4665  0.052535772   -1365.4139 
 7248100    1.4090768    -1365.472  0.055551928   -1365.4165 
 7248200    1.3597336   -1365.4751  0.053606605   -1365.4214 
 7248300    1.1900536   -1365.4719  0.046917081    -1365.425 
 7248400    1.0801443    -1365.472  0.042583979   -1365.4294 
 7248500    1.1696156   -1365.4779  0.046111329   -1365.4318 
 7248600    1.1056512   -1365.4787  0.043589575   -1365.4351 
 7248700    1.0640777   -1365.4796  0.041950567   -1365.4376 
 7248800    1.0495934   -1365.4834   0.04137953    -1365.442 
 7248900    0.9793949   -1365.4842  0.038612002   -1365.4456 
 7249000   0.88899367   -1365.4839  0.035047992   -1365.4489 
 7249100    0.8341458   -1365.4866  0.032885651   -1365.4537 
 7249200   0.82253083   -1365.4895  0.032427739    -1365.457 
 7249300   0.76726901   -1365.4897  0.030249078   -1365.4594 
 7249400   0.74095206   -1365.4923  0.029211549   -1365.4631 
 7249500   0.73364909   -1365.4961  0.028923634   -1365.4672 
 7249600     0.668188   -1365.4972  0.026342874   -1365.4708 
 7249700   0.61030665   -1365.4983  0.024060939   -1365.4742 
 7249800   0.54697125   -1365.4989  0.021563983   -1365.4774 
 7249900   0.49040828      -1365.5  0.019334025   -1365.4807 
 7250000   0.47696541   -1365.5032  0.018804048   -1365.4844 
 7250009     0.474735   -1365.5034  0.018716116   -1365.4847 
Loop time of 346.521 on 4 procs for 500000 steps with 306 atoms

Performance: 12.467 ns/day, 1.925 hours/ns, 1442.913 timesteps/s
99.8% CPU use with 4 MPI tasks x 1 OpenMP threads

MPI task timing breakdown:
Section |  min time  |  avg time  |  max time  |%varavg| %total
---------------------------------------------------------------
Pair    | 266.1      | 294.3      | 334.56     | 146.4 | 84.93
Neigh   | 0          | 0          | 0          |   0.0 |  0.00
Comm    | 7.648      | 48.034     | 76.32      | 363.4 | 13.86
Output  | 0.066366   | 0.075881   | 0.097553   |   4.6 |  0.02
Modify  | 1.9251     | 2.3609     | 2.8149     |  24.9 |  0.68
Other   |            | 1.75       |            |       |  0.51

Nlocal:    76.5 ave 83 max 70 min
Histogram: 1 0 0 0 1 1 0 0 0 1
Nghost:    450.75 ave 456 max 447 min
Histogram: 1 0 0 2 0 0 0 0 0 1
Neighs:    0 ave 0 max 0 min
Histogram: 4 0 0 0 0 0 0 0 0 0
FullNghs:  2249.5 ave 2423 max 2081 min
Histogram: 1 0 0 0 1 1 0 0 0 1

Total # of neighbors = 8998
Ave neighs/atom = 29.4052
Neighbor list builds = 0
Dangerous builds = 0
unfix		3
unfix		4

# --------- Dump xyz file with atoms of only the final state ------------
write_dump	all atom ${dumpsnap}
write_dump	all atom cSiaSiInterfaceSnapshot-100-0.xyz

Total wall time: 0:43:21
