ITEM: TIMESTEP
0
ITEM: NUMBER OF ATOMS
252
ITEM: BOX BOUNDS pp pp pp
0.0000000000000000e+00 1.6289999999999999e+01
0.0000000000000000e+00 1.6289999999999999e+01
2.7149999999999999e+00 2.1719999999999999e+01
ITEM: ATOMS id type xs ys zs
19 1 0 0 0.142857
2 1 0.166667 0 0
4 1 0.25 0.0833333 0.0714286
27 1 0.333333 0 0.142857
6 1 0.5 0 0
8 1 0.583333 0.0833333 0.0714286
35 1 0.666667 0 0.142857
10 1 0.833333 0 0
12 1 0.916667 0.0833333 0.0714286
1 1 0 0.166667 0
3 1 0.0833333 0.25 0.0714286
22 1 0.166667 0.166667 0.142857
5 1 0.333333 0.166667 0
7 1 0.416667 0.25 0.0714286
30 1 0.5 0.166667 0.142857
9 1 0.666667 0.166667 0
11 1 0.75 0.25 0.0714286
38 1 0.833333 0.166667 0.142857
43 1 0 0.333333 0.142857
13 1 0.166667 0.333333 0
14 1 0.25 0.416667 0.0714286
47 1 0.333333 0.333333 0.142857
15 1 0.5 0.333333 0
16 1 0.583333 0.416667 0.0714286
51 1 0.666667 0.333333 0.142857
17 1 0.833333 0.333333 0
18 1 0.916667 0.416667 0.0714286
23 1 0.0833333 0.0833333 0.214286
21 1 0.166667 0 0.285714
31 1 0.416667 0.0833333 0.214286
29 1 0.5 0 0.285714
39 1 0.75 0.0833333 0.214286
37 1 0.833333 0 0.285714
20 1 0 0.166667 0.285714
26 1 0.25 0.25 0.214286
28 1 0.333333 0.166667 0.285714
34 1 0.583333 0.25 0.214286
36 1 0.666667 0.166667 0.285714
42 1 0.916667 0.25 0.214286
45 1 0.0833333 0.416667 0.214286
44 1 0.166667 0.333333 0.285714
49 1 0.416667 0.416667 0.214286
48 1 0.5 0.333333 0.285714
53 1 0.75 0.416667 0.214286
52 1 0.833333 0.333333 0.285714
55 1 0 0 0.428571
25 1 0.25 0.0833333 0.357143
57 1 0.333333 0 0.428571
33 1 0.583333 0.0833333 0.357143
59 1 0.666667 0 0.428571
41 1 0.916667 0.0833333 0.357143
24 1 0.0833333 0.25 0.357143
56 1 0.166667 0.166667 0.428571
32 1 0.416667 0.25 0.357143
58 1 0.5 0.166667 0.428571
40 1 0.75 0.25 0.357143
60 1 0.833333 0.166667 0.428571
61 1 0 0.333333 0.428571
46 1 0.25 0.416667 0.357143
62 1 0.333333 0.333333 0.428571
50 1 0.583333 0.416667 0.357143
63 1 0.666667 0.333333 0.428571
54 1 0.916667 0.416667 0.357143
66 1 0.0833333 0.0833333 0.5
65 1 0.166667 0 0.571429
68 1 0.25 0.0833333 0.642857
72 1 0.416667 0.0833333 0.5
71 1 0.5 0 0.571429
74 1 0.583333 0.0833333 0.642857
78 1 0.75 0.0833333 0.5
77 1 0.833333 0 0.571429
80 1 0.916667 0.0833333 0.642857
64 1 0 0.166667 0.571429
67 1 0.0833333 0.25 0.642857
69 1 0.25 0.25 0.5
70 1 0.333333 0.166667 0.571429
73 1 0.416667 0.25 0.642857
75 1 0.583333 0.25 0.5
76 1 0.666667 0.166667 0.571429
79 1 0.75 0.25 0.642857
81 1 0.916667 0.25 0.5
83 1 0.0833333 0.416667 0.5
82 1 0.166667 0.333333 0.571429
84 1 0.25 0.416667 0.642857
86 1 0.416667 0.416667 0.5
85 1 0.5 0.333333 0.571429
87 1 0.583333 0.416667 0.642857
89 1 0.75 0.416667 0.5
88 1 0.833333 0.333333 0.571429
90 1 0.916667 0.416667 0.642857
91 1 0 0 0.714286
95 1 0.0833333 0.0833333 0.785714
99 1 0.333333 0 0.714286
103 1 0.416667 0.0833333 0.785714
107 1 0.666667 0 0.714286
111 1 0.75 0.0833333 0.785714
94 1 0.166667 0.166667 0.714286
98 1 0.25 0.25 0.785714
102 1 0.5 0.166667 0.714286
106 1 0.583333 0.25 0.785714
110 1 0.833333 0.166667 0.714286
114 1 0.916667 0.25 0.785714
115 1 0 0.333333 0.714286
117 1 0.0833333 0.416667 0.785714
119 1 0.333333 0.333333 0.714286
121 1 0.416667 0.416667 0.785714
123 1 0.666667 0.333333 0.714286
125 1 0.75 0.416667 0.785714
93 1 0.166667 0 0.857143
97 1 0.25 0.0833333 0.928571
101 1 0.5 0 0.857143
105 1 0.583333 0.0833333 0.928571
109 1 0.833333 0 0.857143
113 1 0.916667 0.0833333 0.928571
92 1 0 0.166667 0.857143
96 1 0.0833333 0.25 0.928571
100 1 0.333333 0.166667 0.857143
104 1 0.416667 0.25 0.928571
108 1 0.666667 0.166667 0.857143
112 1 0.75 0.25 0.928571
116 1 0.166667 0.333333 0.857143
118 1 0.25 0.416667 0.928571
120 1 0.5 0.333333 0.857143
122 1 0.583333 0.416667 0.928571
124 1 0.833333 0.333333 0.857143
126 1 0.916667 0.416667 0.928571
127 1 0 0.5 0
128 1 0.0833333 0.583333 0.0714286
146 1 0.166667 0.5 0.142857
129 1 0.333333 0.5 0
130 1 0.416667 0.583333 0.0714286
150 1 0.5 0.5 0.142857
131 1 0.666667 0.5 0
132 1 0.75 0.583333 0.0714286
154 1 0.833333 0.5 0.142857
157 1 0 0.666667 0.142857
134 1 0.166667 0.666667 0
136 1 0.25 0.75 0.0714286
165 1 0.333333 0.666667 0.142857
138 1 0.5 0.666667 0
140 1 0.583333 0.75 0.0714286
173 1 0.666667 0.666667 0.142857
142 1 0.833333 0.666667 0
144 1 0.916667 0.75 0.0714286
133 1 0 0.833333 0
135 1 0.0833333 0.916667 0.0714286
160 1 0.166667 0.833333 0.142857
137 1 0.333333 0.833333 0
139 1 0.416667 0.916667 0.0714286
168 1 0.5 0.833333 0.142857
141 1 0.666667 0.833333 0
143 1 0.75 0.916667 0.0714286
176 1 0.833333 0.833333 0.142857
145 1 0 0.5 0.285714
148 1 0.25 0.583333 0.214286
149 1 0.333333 0.5 0.285714
152 1 0.583333 0.583333 0.214286
153 1 0.666667 0.5 0.285714
156 1 0.916667 0.583333 0.214286
161 1 0.0833333 0.75 0.214286
159 1 0.166667 0.666667 0.285714
169 1 0.416667 0.75 0.214286
167 1 0.5 0.666667 0.285714
177 1 0.75 0.75 0.214286
175 1 0.833333 0.666667 0.285714
158 1 0 0.833333 0.285714
164 1 0.25 0.916667 0.214286
166 1 0.333333 0.833333 0.285714
172 1 0.583333 0.916667 0.214286
174 1 0.666667 0.833333 0.285714
180 1 0.916667 0.916667 0.214286
147 1 0.0833333 0.583333 0.357143
181 1 0.166667 0.5 0.428571
151 1 0.416667 0.583333 0.357143
182 1 0.5 0.5 0.428571
155 1 0.75 0.583333 0.357143
183 1 0.833333 0.5 0.428571
184 1 0 0.666667 0.428571
163 1 0.25 0.75 0.357143
186 1 0.333333 0.666667 0.428571
171 1 0.583333 0.75 0.357143
188 1 0.666667 0.666667 0.428571
179 1 0.916667 0.75 0.357143
162 1 0.0833333 0.916667 0.357143
185 1 0.166667 0.833333 0.428571
170 1 0.416667 0.916667 0.357143
187 1 0.5 0.833333 0.428571
178 1 0.75 0.916667 0.357143
189 1 0.833333 0.833333 0.428571
190 1 0 0.5 0.571429
191 1 0.0833333 0.583333 0.642857
192 1 0.25 0.583333 0.5
193 1 0.333333 0.5 0.571429
194 1 0.416667 0.583333 0.642857
195 1 0.583333 0.583333 0.5
196 1 0.666667 0.5 0.571429
197 1 0.75 0.583333 0.642857
198 1 0.916667 0.583333 0.5
201 1 0.0833333 0.75 0.5
200 1 0.166667 0.666667 0.571429
203 1 0.25 0.75 0.642857
207 1 0.416667 0.75 0.5
206 1 0.5 0.666667 0.571429
209 1 0.583333 0.75 0.642857
213 1 0.75 0.75 0.5
212 1 0.833333 0.666667 0.571429
215 1 0.916667 0.75 0.642857
199 1 0 0.833333 0.571429
202 1 0.0833333 0.916667 0.642857
204 1 0.25 0.916667 0.5
205 1 0.333333 0.833333 0.571429
208 1 0.416667 0.916667 0.642857
210 1 0.583333 0.916667 0.5
211 1 0.666667 0.833333 0.571429
214 1 0.75 0.916667 0.642857
216 1 0.916667 0.916667 0.5
218 1 0.166667 0.5 0.714286
220 1 0.25 0.583333 0.785714
222 1 0.5 0.5 0.714286
224 1 0.583333 0.583333 0.785714
226 1 0.833333 0.5 0.714286
228 1 0.916667 0.583333 0.785714
229 1 0 0.666667 0.714286
233 1 0.0833333 0.75 0.785714
237 1 0.333333 0.666667 0.714286
241 1 0.416667 0.75 0.785714
245 1 0.666667 0.666667 0.714286
249 1 0.75 0.75 0.785714
232 1 0.166667 0.833333 0.714286
236 1 0.25 0.916667 0.785714
240 1 0.5 0.833333 0.714286
244 1 0.583333 0.916667 0.785714
248 1 0.833333 0.833333 0.714286
252 1 0.916667 0.916667 0.785714
217 1 0 0.5 0.857143
219 1 0.0833333 0.583333 0.928571
221 1 0.333333 0.5 0.857143
223 1 0.416667 0.583333 0.928571
225 1 0.666667 0.5 0.857143
227 1 0.75 0.583333 0.928571
231 1 0.166667 0.666667 0.857143
235 1 0.25 0.75 0.928571
239 1 0.5 0.666667 0.857143
243 1 0.583333 0.75 0.928571
247 1 0.833333 0.666667 0.857143
251 1 0.916667 0.75 0.928571
230 1 0 0.833333 0.857143
234 1 0.0833333 0.916667 0.928571
238 1 0.333333 0.833333 0.857143
242 1 0.416667 0.916667 0.928571
246 1 0.666667 0.833333 0.857143
250 1 0.75 0.916667 0.928571
ITEM: TIMESTEP
10000
ITEM: NUMBER OF ATOMS
252
ITEM: BOX BOUNDS pp pp pp
0.0000000000000000e+00 1.6289999999999999e+01
0.0000000000000000e+00 1.6289999999999999e+01
2.7149999999999999e+00 2.1719999999999999e+01
ITEM: ATOMS id type xs ys zs
2 1 0.145859 0.0703621 0.0291786
22 1 0.222602 0.128044 0.16916
54 1 0.974028 0.433635 0.401092
101 1 0.420484 0.0755483 0.00872269
8 1 0.558074 0.0556691 0.123859
30 1 0.499692 0.181269 0.055425
1 1 0.950651 0.102456 0.105048
3 1 0.152701 0.228358 0.0933925
43 1 0.0490706 0.37199 0.133306
47 1 0.277888 0.29683 0.0613877
181 1 0.264993 0.484351 0.45844
7 1 0.403352 0.292889 0.122674
105 1 0.700758 0.175025 0.0638227
51 1 0.688447 0.314098 0.10015
11 1 0.837124 0.265594 0.082313
38 1 0.875973 0.183906 0.174861
146 1 0.158448 0.46868 0.0796995
14 1 0.299521 0.427561 0.0453274
127 1 0.972829 0.460361 0.0314289
17 1 0.901368 0.38211 0.115461
23 1 0.0851794 0.0694742 0.195447
180 1 0.920674 0.011884 0.265202
25 1 0.237967 0.125681 0.303254
31 1 0.435603 0.0647411 0.173135
33 1 0.572466 0.0404846 0.235116
36 1 0.641546 0.150595 0.274968
39 1 0.740257 0.108348 0.170579
37 1 0.776362 0.0298007 0.275603
20 1 0.0328744 0.176023 0.270938
26 1 0.305394 0.242625 0.219116
44 1 0.204091 0.335726 0.290345
28 1 0.398443 0.145294 0.254462
34 1 0.686434 0.288433 0.23844
42 1 0.965064 0.291336 0.230762
45 1 0.114649 0.429503 0.244457
12 1 0.835273 0.109795 0.015257
49 1 0.458157 0.421563 0.177703
149 1 0.343545 0.452846 0.252164
48 1 0.536034 0.352679 0.262027
53 1 0.776499 0.352796 0.328995
153 1 0.72376 0.490742 0.35035
154 1 0.740781 0.502735 0.234706
18 1 0.863571 0.475764 0.200372
69 1 0.278089 0.242305 0.492133
57 1 0.35638 0.0548151 0.356946
72 1 0.443039 0.050729 0.462013
58 1 0.550519 0.14167 0.371353
41 1 0.99534 0.0917335 0.367189
24 1 0.0867959 0.239164 0.360748
56 1 0.167409 0.157833 0.426191
32 1 0.471334 0.253551 0.353395
62 1 0.391355 0.327085 0.439152
75 1 0.634828 0.210502 0.449829
40 1 0.76765 0.259252 0.423688
52 1 0.908664 0.317278 0.343988
60 1 0.893602 0.153989 0.449854
50 1 0.570322 0.459655 0.333308
61 1 0.0540358 0.339908 0.471319
46 1 0.298985 0.396964 0.365597
63 1 0.578451 0.33959 0.431136
80 1 -0.00234543 0.053868 0.655459
68 1 0.310295 0.104546 0.624613
65 1 0.2497 -0.00371543 0.561738
70 1 0.389713 0.178215 0.530771
74 1 0.590104 0.0819092 0.640583
78 1 0.805699 0.0870712 0.564996
64 1 0.1004 0.148847 0.599301
67 1 0.173435 0.234375 0.679125
195 1 0.611257 0.468099 0.505546
82 1 0.232001 0.304637 0.589266
73 1 0.528776 0.239948 0.522033
76 1 0.704077 0.179409 0.641597
79 1 0.863121 0.18097 0.628834
88 1 0.931507 0.306573 0.566204
83 1 0.180796 0.409953 0.528967
84 1 0.268612 0.427327 0.67171
85 1 0.455491 0.364758 0.601181
86 1 0.403542 0.448306 0.506491
87 1 0.58692 0.414234 0.633034
89 1 0.820882 0.368167 0.517794
196 1 0.744375 0.414689 0.607948
90 1 0.995817 0.414876 0.653338
95 1 0.15612 0.0927137 0.84268
103 1 0.465543 0.0655818 0.781712
99 1 0.370513 0.0184407 0.703722
102 1 0.577848 0.149746 0.745852
111 1 0.694095 0.0576304 0.794936
109 1 0.885015 0.0345952 0.825303
110 1 0.905736 0.124543 0.735471
94 1 0.281541 0.179053 0.723901
98 1 0.332184 0.28841 0.808447
120 1 0.624166 0.299948 0.750517
123 1 0.723858 0.314176 0.679463
124 1 0.832624 0.269088 0.855791
114 1 0.966151 0.239172 0.790067
115 1 0.0678532 0.327215 0.73074
119 1 0.389349 0.314494 0.707204
121 1 0.395767 0.468385 0.75378
125 1 0.78433 0.370012 0.800645
226 1 0.889448 0.435421 0.751406
92 1 0.0504528 0.19158 0.899603
93 1 0.199734 0.0034642 0.922967
242 1 0.495461 0.0286197 0.904123
100 1 0.367293 0.144887 0.818561
97 1 0.318104 0.0988951 0.921848
108 1 0.660941 0.0474375 0.917186
113 1 0.955104 0.0832283 0.932035
217 1 0.947132 0.48593 0.848744
96 1 0.125373 0.316041 0.972641
116 1 0.169467 0.333643 0.817097
5 1 0.478266 0.291238 0.978073
104 1 0.438413 0.349072 0.879584
122 1 0.603973 0.360866 0.856259
106 1 0.711965 0.192636 0.841263
112 1 0.646229 0.187787 0.948336
9 1 0.886151 0.230476 0.965044
118 1 0.248169 0.334577 0.919435
221 1 0.325341 0.458354 0.866998
126 1 0.981986 0.361873 0.936195
13 1 0.33637 0.235824 0.961672
225 1 0.687114 0.49224 0.83919
15 1 0.617093 0.320264 0.985514
66 1 0.115297 0.0502928 0.518846
81 1 0.0203485 0.210878 0.509828
128 1 0.030952 0.574136 0.0887893
157 1 0.976375 0.67554 0.16884
130 1 0.319674 0.581005 0.0999098
150 1 0.471964 0.572936 0.124056
16 1 0.641152 0.516629 0.0801801
131 1 0.73767 0.605354 0.0324747
132 1 0.828145 0.655012 0.115802
165 1 0.284272 0.719517 0.0808781
160 1 0.187992 0.785479 0.156653
140 1 0.647619 0.793739 0.123313
138 1 0.576694 0.647557 0.0414817
168 1 0.51177 0.808158 0.123833
142 1 0.836203 0.771172 0.0272508
144 1 0.915 0.822373 0.171143
133 1 0.0168433 0.878218 0.0975203
135 1 0.162919 0.867669 0.0572851
27 1 0.349069 0.934237 0.146786
139 1 0.457256 0.930256 0.0603261
141 1 0.687144 0.823979 0.0150756
178 1 0.703144 0.956877 0.401425
183 1 0.881718 0.50943 0.482468
143 1 0.798364 0.867558 0.100501
159 1 0.158619 0.617618 0.26886
148 1 0.226733 0.506862 0.192483
167 1 0.474857 0.647517 0.237822
152 1 0.650544 0.596973 0.190567
156 1 0.960473 0.563183 0.243654
161 1 0.0856166 0.729647 0.249703
158 1 0.0151081 0.802563 0.329647
166 1 0.281523 0.790753 0.252129
169 1 0.388552 0.741809 0.171372
173 1 0.738963 0.723375 0.193808
164 1 0.316628 0.929645 0.281149
21 1 0.186602 0.987843 0.271406
170 1 0.442369 0.881657 0.34138
29 1 0.496676 0.909858 0.221197
172 1 0.660556 0.901207 0.226217
177 1 0.784489 0.814943 0.276708
176 1 0.898344 0.877097 0.298398
210 1 0.56092 0.980254 0.343404
147 1 0.123324 0.536847 0.432606
184 1 0.0144659 0.657232 0.469376
174 1 0.658725 0.85178 0.336936
151 1 0.458471 0.541281 0.314439
182 1 0.505911 0.527909 0.440354
155 1 0.729324 0.534138 0.459524
175 1 0.923483 0.611252 0.36847
201 1 0.146376 0.69941 0.455539
163 1 0.22507 0.698845 0.339591
185 1 0.21152 0.81398 0.405365
186 1 0.336866 0.640419 0.395023
187 1 0.472397 0.739091 0.353083
171 1 0.60761 0.731934 0.387934
188 1 0.732588 0.682517 0.450546
179 1 0.819576 0.726407 0.372573
189 1 0.931012 0.791904 0.448814
162 1 0.120813 0.895243 0.363051
55 1 0.0419546 0.971249 0.44295
204 1 0.296732 0.94047 0.436792
59 1 0.632718 0.943174 0.500771
4 1 0.241383 0.993235 0.0941154
234 1 0.0209734 1.00182 0.0135921
19 1 0.992109 0.97679 0.167375
145 1 0.0618368 0.525103 0.3274
35 1 0.694215 0.989668 0.116314
207 1 0.44929 0.736567 0.483727
10 1 0.747149 0.990311 -0.00107599
191 1 0.152655 0.61029 0.683957
190 1 0.107699 0.518364 0.604453
192 1 0.324959 0.678325 0.522247
193 1 0.335226 0.526599 0.594888
250 1 0.82409 0.919944 0.89545
197 1 0.884198 0.505336 0.642806
212 1 0.848418 0.662 0.619824
198 1 0.963998 0.589488 0.573894
199 1 0.100008 0.82116 0.52598
200 1 0.238764 0.723006 0.630257
230 1 0.964894 0.888268 0.927316
206 1 0.534825 0.682273 0.57334
209 1 0.632617 0.758871 0.63967
213 1 0.814118 0.781672 0.536432
215 1 0.922374 0.794552 0.627435
202 1 0.234346 0.843862 0.558625
205 1 0.393047 0.862232 0.546109
208 1 0.427571 0.909457 0.651097
71 1 0.509144 0.967642 0.563695
211 1 0.686915 0.866727 0.58028
216 1 0.976366 0.885762 0.54108
77 1 0.881206 0.99168 0.611693
117 1 0.058834 0.569091 0.833598
218 1 0.14785 0.490697 0.757299
220 1 0.260673 0.58953 0.812515
194 1 0.443814 0.617791 0.666892
222 1 0.530974 0.520269 0.712365
224 1 0.632924 0.615526 0.748849
249 1 0.809696 0.646982 0.809651
228 1 0.956676 0.679927 0.798416
229 1 0.0345006 0.69625 0.684003
233 1 0.102598 0.752247 0.783408
237 1 0.312771 0.698175 0.744691
203 1 0.222821 0.820761 0.730157
241 1 0.443516 0.733021 0.763735
239 1 0.575564 0.728459 0.806901
245 1 0.75324 0.721515 0.721518
248 1 0.888781 0.84543 0.754218
91 1 0.0684978 0.996881 0.747943
252 1 0.0187666 0.870212 0.811706
232 1 0.197666 0.979253 0.680803
236 1 0.268864 0.979525 0.807943
240 1 0.435049 0.861126 0.764374
244 1 0.585626 0.85981 0.722744
107 1 0.676305 0.956443 0.679289
214 1 0.82224 0.977721 0.725349
219 1 0.0242348 0.662442 0.975357
129 1 0.347172 0.544636 0.98887
223 1 0.558952 0.658089 0.913543
227 1 0.778768 0.572985 0.910196
247 1 0.919965 0.551209 0.955299
231 1 0.130261 0.695558 0.901687
134 1 0.288076 0.665243 0.932174
136 1 0.276613 0.806123 0.988424
235 1 0.428467 0.708032 0.916549
243 1 0.679269 0.763405 0.893338
246 1 0.804156 0.79586 0.85055
251 1 0.915155 0.752623 0.941708
6 1 0.58603 0.954747 0.999358
238 1 0.386615 0.929285 0.860769
137 1 0.407717 0.844473 0.955943
ITEM: TIMESTEP
20000
ITEM: NUMBER OF ATOMS
252
ITEM: BOX BOUNDS pp pp pp
0.0000000000000000e+00 1.6289999999999999e+01
0.0000000000000000e+00 1.6289999999999999e+01
2.7149999999999999e+00 2.1719999999999999e+01
ITEM: ATOMS id type xs ys zs
192 1 0.219624 0.469976 0.452559
23 1 0.244337 0.152179 0.13209
22 1 0.196755 0.12484 0.0145995
30 1 0.482735 0.135094 0.128292
8 1 0.555673 0.138841 0.0212836
105 1 0.712454 0.111642 0.144408
1 1 0.801494 0.0924718 0.0434934
47 1 0.280586 0.286404 0.102111
7 1 0.418458 0.25348 0.0964351
51 1 0.633628 0.240638 0.15187
42 1 0.98426 0.227266 0.189547
38 1 0.905855 0.146567 0.107681
146 1 0.109856 0.48262 0.171408
14 1 0.185319 0.384521 0.0960832
150 1 0.497159 0.472183 0.0956216
15 1 0.672519 0.362701 0.106227
11 1 0.799599 0.347327 0.030606
17 1 0.920531 0.413461 0.058868
20 1 0.0774858 0.13034 0.156177
28 1 0.288331 0.0594904 0.225715
57 1 0.42707 0.00615375 0.242365
32 1 0.450068 0.11784 0.329117
36 1 0.574184 0.0460935 0.224861
58 1 0.663358 0.204744 0.339131
33 1 0.727444 0.0821874 0.268121
19 1 0.96908 0.0284149 0.14884
41 1 0.120317 0.22285 0.241096
26 1 0.231609 0.178734 0.298762
149 1 0.324287 0.294067 0.284164
46 1 0.456294 0.26954 0.325235
49 1 0.420675 0.308617 0.203889
48 1 0.570596 0.278542 0.263156
39 1 0.815277 0.195999 0.289127
53 1 0.765716 0.26968 0.178335
148 1 0.130977 0.483307 0.282637
52 1 0.943381 0.335045 0.308656
44 1 0.0967844 0.357056 0.298353
130 1 0.364326 0.434714 0.133228
152 1 0.581261 0.402666 0.289397
154 1 0.796245 0.499126 0.351536
34 1 0.714015 0.47467 0.187567
43 1 1.00106 0.375622 0.188346
78 1 0.947638 0.0885004 0.460489
56 1 0.214295 0.017741 0.342597
69 1 0.390989 0.150491 0.442811
72 1 0.584396 0.0835393 0.389029
40 1 0.931042 0.0962703 0.337637
198 1 0.0605487 0.31116 0.425005
24 1 0.191218 0.201151 0.422384
61 1 0.185002 0.335276 0.451769
89 1 0.916122 0.336945 0.467151
70 1 0.53767 0.218749 0.437156
63 1 0.713839 0.274286 0.440208
75 1 0.832047 0.299633 0.370705
54 1 0.008496 0.212632 0.348825
86 1 0.348876 0.487868 0.395022
62 1 0.408723 0.35297 0.415033
73 1 0.562622 0.37628 0.451582
50 1 0.682013 0.390618 0.366612
153 1 0.937171 0.458016 0.397555
129 1 0.266937 0.4966 0.0481789
6 1 0.603976 0.00583818 0.0885236
60 1 0.0866691 0.0180934 0.433342
64 1 0.334986 0.0735471 0.520404
81 1 0.200686 0.0298733 0.529043
59 1 0.773167 0.125416 0.508759
74 1 0.787954 0.00951286 0.663438
88 1 0.0120119 0.166845 0.593692
190 1 0.140627 0.174704 0.540156
68 1 0.385545 0.177331 0.611729
99 1 0.526219 0.148861 0.54485
71 1 0.651772 0.215125 0.555749
76 1 0.78309 0.240599 0.643411
79 1 0.882382 0.228382 0.555857
83 1 0.138419 0.331797 0.562439
184 1 0.0775954 0.508335 0.589911
67 1 0.287611 0.354488 0.570722
87 1 0.621493 0.356529 0.58086
196 1 0.771909 0.367331 0.591786
197 1 0.768218 0.50075 0.654386
126 1 0.972912 0.427415 0.883654
80 1 0.00200039 0.102004 0.701715
100 1 0.430084 0.1014 0.728438
103 1 0.576326 0.102971 0.704899
102 1 0.714284 0.0864969 0.743219
110 1 0.976829 0.113174 0.813195
115 1 0.050598 0.261592 0.688768
116 1 0.190611 0.295901 0.760444
94 1 0.310073 0.259051 0.701147
98 1 0.447024 0.233183 0.767027
120 1 0.530034 0.266356 0.67042
111 1 0.681368 0.225399 0.786019
124 1 0.810388 0.278538 0.838716
90 1 0.907592 0.243303 0.728034
217 1 0.016552 0.384627 0.776305
218 1 0.125006 0.406345 0.691487
119 1 0.363165 0.38508 0.682879
222 1 0.525663 0.408546 0.647925
9 1 0.836242 0.429616 0.824458
226 1 0.89548 0.397868 0.703169
91 1 0.103034 0.132085 0.898085
93 1 0.218812 0.0231044 0.895435
2 1 0.319625 0.0500249 0.980387
101 1 0.450043 0.111521 0.935153
242 1 0.541374 0.0241376 0.87867
108 1 0.701138 0.0195649 0.861183
112 1 0.684272 0.123892 0.952567
109 1 0.974965 0.0924771 0.984324
95 1 0.118508 0.262741 0.857858
92 1 0.004794 0.301124 0.912476
3 1 0.274169 0.243086 0.988725
97 1 0.497958 0.240607 0.890578
5 1 0.411126 0.28833 0.969842
106 1 0.641805 0.253658 0.90181
12 1 0.789839 0.232268 0.950718
114 1 0.909787 0.193027 0.896419
221 1 0.178872 0.495789 0.94266
96 1 0.228586 0.353174 0.902689
118 1 0.431554 0.449875 0.818509
13 1 0.349196 0.396612 0.909526
122 1 0.671473 0.377692 0.965592
104 1 0.565226 0.475706 0.896052
225 1 0.827551 0.463187 0.96172
210 1 0.536782 0.00740225 0.592901
77 1 0.859123 0.0231678 0.568362
236 1 0.351265 0.0253948 0.792791
82 1 0.386162 0.276505 0.503608
84 1 0.21559 0.462977 0.570106
127 1 0.029693 0.477721 0.976239
128 1 0.0855987 0.579784 0.0794547
185 1 0.313674 0.868565 0.484856
165 1 0.22169 0.621216 0.0769707
169 1 0.338105 0.605015 0.151586
132 1 0.761348 0.57089 0.106015
219 1 0.898146 0.569062 0.101409
168 1 0.427095 0.719231 0.118863
139 1 0.457326 0.817794 0.0170469
173 1 0.558549 0.728512 0.159151
223 1 0.593211 0.781857 0.0468671
142 1 0.732817 0.717425 0.10257
157 1 0.928747 0.766623 -0.00653358
234 1 0.076053 0.889034 0.112324
135 1 0.223757 0.860105 0.0496925
137 1 0.359036 0.923729 0.0347637
31 1 0.449933 0.96288 0.123819
140 1 0.622641 0.856646 0.165392
174 1 0.619254 1.0073 0.48727
143 1 0.816999 0.829283 0.108199
35 1 0.784584 0.932021 0.0344969
45 1 0.00997347 0.556164 0.324152
181 1 0.34146 0.592785 0.292765
151 1 0.488656 0.549712 0.29087
167 1 0.582541 0.519815 0.199048
177 1 0.666438 0.628536 0.187926
18 1 0.774185 0.600454 0.256171
156 1 0.930242 0.6138 0.228557
160 1 0.372613 0.737865 0.283382
187 1 0.517606 0.707698 0.279178
176 1 0.848929 0.751097 0.308219
172 1 0.762136 0.841048 0.242233
161 1 0.985433 0.748622 0.239258
162 1 0.0507102 0.945349 0.315463
133 1 0.120855 0.984673 0.201702
4 1 0.268152 0.934191 0.179133
21 1 0.201926 0.860464 0.350058
27 1 0.372459 0.840561 0.188954
164 1 0.418151 0.900209 0.32329
29 1 0.614574 0.907066 0.280113
144 1 0.969181 0.782161 0.125876
180 1 0.908535 0.970272 0.259927
147 1 0.15975 0.598298 0.469777
163 1 0.201294 0.590294 0.318947
216 1 0.863099 0.886119 0.486261
178 1 0.765242 0.983042 0.466546
37 1 0.773151 0.950575 0.329392
155 1 0.656409 0.523103 0.421406
182 1 0.554959 0.61829 0.402668
179 1 0.84627 0.625483 0.383988
183 1 0.955391 0.526738 0.492797
175 1 0.947287 0.672777 0.468756
158 1 0.0527407 0.798012 0.339214
145 1 0.056191 0.674305 0.394246
159 1 0.210022 0.711593 0.392014
166 1 0.356617 0.754929 0.41377
186 1 0.505644 0.731582 0.449821
188 1 0.710973 0.657466 0.425263
189 1 0.778541 0.818603 0.398428
171 1 0.599524 0.852198 0.483935
55 1 -0.00038218 0.832953 0.462874
25 1 0.329037 0.998186 0.417193
170 1 0.547896 0.814216 0.362143
113 1 0.101851 0.991697 0.00207176
85 1 0.412232 0.530421 0.492921
16 1 0.595079 0.543064 0.0150029
201 1 0.11456 0.669715 0.575844
191 1 0.204026 0.621585 0.650325
249 1 0.760805 0.760885 0.871799
193 1 0.347619 0.549122 0.634783
195 1 0.562927 0.524247 0.530216
224 1 0.667777 0.571096 0.605606
202 1 0.141305 0.796197 0.509613
200 1 0.277702 0.743295 0.658385
206 1 0.416328 0.683828 0.623831
207 1 0.380713 0.821697 0.582475
209 1 0.537981 0.683083 0.564349
213 1 0.682639 0.686332 0.536724
199 1 0.950824 0.745016 0.590006
66 1 0.212142 0.89843 0.585142
125 1 0.739673 0.536908 0.775876
208 1 0.529782 0.848945 0.607238
230 1 0.894891 0.966416 0.956034
107 1 0.729081 0.895691 0.610966
211 1 0.736222 0.812627 0.518211
10 1 0.713444 0.896333 0.923413
248 1 0.958453 0.970339 0.643779
214 1 0.861186 0.854549 0.646418
228 1 0.101214 0.68124 0.852574
117 1 0.181351 0.534675 0.762511
121 1 0.316003 0.506861 0.741901
241 1 0.449835 0.650335 0.744012
194 1 0.515341 0.507796 0.739548
239 1 0.700086 0.668652 0.714286
243 1 0.85157 0.638194 0.767855
215 1 0.939452 0.61802 0.661234
229 1 1.00952 0.676124 0.767701
237 1 0.336169 0.711742 0.766574
244 1 0.678963 0.787395 0.664142
240 1 0.568424 0.81465 0.743389
245 1 0.917447 0.793217 0.76113
233 1 0.0655213 0.880018 0.672885
252 1 0.0558463 0.821875 0.796976
232 1 0.204563 0.88172 0.702198
65 1 0.271641 0.89991 0.809082
141 1 0.584023 0.921858 0.979148
205 1 0.484224 0.931699 0.801707
250 1 0.907873 0.883492 0.857983
212 1 0.901457 0.503917 0.606595
220 1 0.207272 0.598996 0.871861
134 1 0.323436 0.693655 0.891211
138 1 0.418937 0.506665 0.990507
123 1 0.621107 0.572602 0.832869
246 1 0.636239 0.76134 0.931883
131 1 0.745237 0.557203 0.988839
227 1 0.831427 0.632867 0.900864
247 1 0.927778 0.618598 0.987347
231 1 0.119643 0.741935 0.947618
251 1 0.0390304 0.862961 0.957018
136 1 0.252145 0.72025 1.00335
235 1 0.504445 0.636536 0.960633
203 1 0.391435 0.825673 0.817556
238 1 0.532692 0.686751 0.835863
204 1 0.289552 0.617342 0.53479
ITEM: TIMESTEP
30000
ITEM: NUMBER OF ATOMS
252
ITEM: BOX BOUNDS pp pp pp
0.0000000000000000e+00 1.6289999999999999e+01
0.0000000000000000e+00 1.6289999999999999e+01
2.7149999999999999e+00 2.1719999999999999e+01
ITEM: ATOMS id type xs ys zs
23 1 0.162597 0.122806 0.0706404
38 1 0.0244161 0.047433 0.0757518
2 1 0.316535 0.0260775 0.0379341
105 1 0.656702 0.105182 0.159532
1 1 0.732931 0.0859808 0.0687179
47 1 0.155545 0.272802 0.094628
7 1 0.293486 0.316207 0.126548
30 1 0.378974 0.229877 0.0463133
51 1 0.490454 0.211234 0.170333
8 1 0.601325 0.212386 0.0923541
11 1 0.721169 0.28696 0.129248
12 1 0.806414 0.222489 0.0428947
42 1 0.927938 0.261281 0.0991089
129 1 0.253589 0.432159 0.077674
138 1 0.483485 0.421457 0.0684909
99 1 0.663844 0.014674 0.442559
225 1 0.660165 0.407605 0.0726488
9 1 0.883057 0.494659 0.00661316
43 1 0.947309 0.357667 0.184786
20 1 0.15962 0.0631962 0.19352
40 1 0.98473 0.131954 0.313335
56 1 0.307667 0.146776 0.34521
28 1 0.340258 0.0615107 0.242995
57 1 0.509977 0.133576 0.26615
33 1 0.734288 0.0631801 0.306708
19 1 0.0110258 0.0582786 0.205649
44 1 0.0686155 0.258128 0.306503
26 1 0.190803 0.186029 0.285813
149 1 0.247747 0.310981 0.248766
46 1 0.370761 0.268242 0.379991
48 1 0.543635 0.289061 0.258911
39 1 0.660497 0.255964 0.329118
53 1 0.758134 0.174809 0.227545
54 1 0.918948 0.172942 0.194179
41 1 0.107936 0.349251 0.203441
49 1 0.42472 0.33786 0.158387
130 1 0.423962 0.416457 0.27932
152 1 0.49548 0.348636 0.359031
34 1 0.62079 0.380318 0.176225
52 1 0.926054 0.344528 0.298431
81 1 0.169203 0.0508528 0.490972
78 1 0.175388 0.200772 0.461894
69 1 0.349307 0.104872 0.457096
72 1 0.587862 0.147557 0.375214
178 1 0.809439 0.0977146 0.409364
60 1 0.953219 0.0314166 0.383999
198 1 0.0746153 0.316402 0.431182
24 1 0.295431 0.213321 0.524211
62 1 0.431759 0.309006 0.496453
59 1 0.833456 0.263682 0.427784
89 1 0.955425 0.288379 0.490472
45 1 0.0804572 0.456615 0.470504
181 1 0.302857 0.377962 0.369246
86 1 0.324433 0.451635 0.478146
63 1 0.611208 0.421119 0.360113
73 1 0.530818 0.430295 0.47889
154 1 0.798742 0.478981 0.378628
58 1 0.742852 0.368237 0.403984
75 1 0.952869 0.449794 0.381936
36 1 0.568647 0.011747 0.218865
77 1 0.0141594 0.0916995 0.484037
17 1 0.925373 0.49464 0.137383
32 1 0.492164 0.18417 0.467229
5 1 0.572968 0.324739 -0.00446104
220 1 0.360432 0.478329 0.00506526
109 1 0.947076 0.138196 0.0153144
233 1 0.019023 0.0216135 0.666898
218 1 0.108713 0.49382 0.81677
120 1 0.688044 0.144336 0.662577
174 1 0.764626 0.062059 0.517087
88 1 0.155225 0.234784 0.588492
79 1 0.0219027 0.192279 0.560814
82 1 0.308734 0.350916 0.546951
100 1 0.435908 0.172699 0.615627
70 1 0.575307 0.198583 0.577571
71 1 0.789627 0.214109 0.566206
222 1 0.734341 0.32979 0.606244
76 1 0.901656 0.218452 0.644919
61 1 0.161883 0.380623 0.574341
68 1 0.378505 0.306703 0.648447
114 1 0.827082 0.346057 0.962386
50 1 0.662935 0.411989 0.506407
153 1 0.994068 0.386927 0.587271
93 1 0.112559 0.0852186 0.76403
80 1 0.957473 0.0446484 0.793696
122 1 0.69055 0.41125 0.885625
103 1 0.511323 0.0472255 0.676807
104 1 0.548281 0.459286 0.861168
196 1 0.584932 0.148589 0.762835
74 1 0.876377 0.0759446 0.694867
116 1 0.123105 0.210915 0.816262
190 1 0.131779 0.28114 0.706116
95 1 0.26715 0.234288 0.838996
124 1 0.796485 0.297447 0.721784
111 1 0.710003 0.203663 0.773222
90 1 0.930454 0.335755 0.779411
115 1 0.0302486 0.387732 0.706204
83 1 0.257881 0.384208 0.680166
119 1 0.261739 0.361478 0.815168
67 1 0.529297 0.330612 0.671545
98 1 0.453764 0.375379 0.778584
118 1 0.568462 0.460232 0.734503
121 1 0.267276 0.399097 0.932339
87 1 0.701372 0.434474 0.705959
217 1 0.967746 0.497191 0.801152
113 1 0.120248 0.0990052 0.89103
22 1 0.248511 0.106749 0.956994
94 1 0.454738 0.168374 0.826149
242 1 0.426921 0.0294732 0.90141
101 1 0.491121 0.149073 0.970844
108 1 0.656039 0.0670567 0.869741
10 1 0.788411 0.0359141 0.893952
96 1 0.0214156 0.405075 0.903226
110 1 0.891806 0.139778 0.881259
91 1 0.050231 0.216129 0.941809
3 1 0.351919 0.155926 0.905766
13 1 0.372242 0.29691 0.933938
97 1 0.500472 0.28049 0.885492
112 1 0.657541 0.154327 0.972148
106 1 0.714383 0.25618 0.895124
92 1 0.937879 0.293588 0.881745
14 1 0.137525 0.329891 0.97569
146 1 0.0780537 0.500884 0.160451
221 1 0.138419 0.516277 0.0409522
150 1 0.525026 0.565641 0.0976506
177 1 0.733534 0.627567 0.17114
15 1 0.646638 0.507462 0.157038
25 1 0.244405 0.879129 0.355462
219 1 0.956468 0.704576 0.123952
144 1 0.0165691 0.763836 0.0286021
128 1 0.182537 0.662694 0.0283688
136 1 0.40538 0.682601 0.0466139
168 1 0.371637 0.651319 0.166951
137 1 0.396809 0.805383 0.122054
167 1 0.554132 0.727845 0.083344
170 1 0.496328 0.91722 0.353028
132 1 0.823353 0.694935 0.0954659
135 1 0.173781 0.813216 0.050196
234 1 1.00754 0.889433 0.0852205
6 1 0.348391 0.954693 0.144866
4 1 0.223905 0.862449 0.164451
31 1 0.490793 0.912002 0.145604
139 1 0.5767 0.865905 0.0508975
142 1 0.828929 0.84019 0.155397
223 1 0.740941 0.837455 0.0576987
35 1 0.788058 0.974309 0.0175563
159 1 0.233468 0.577659 0.264785
148 1 0.0642641 0.582823 0.260006
165 1 0.312288 0.509408 0.178056
151 1 0.505092 0.54666 0.238473
18 1 0.792635 0.56582 0.289686
156 1 0.921577 0.611155 0.229661
160 1 0.203136 0.699049 0.297018
27 1 0.312069 0.776391 0.23451
169 1 0.431006 0.677565 0.283708
187 1 0.496229 0.816738 0.256058
173 1 0.608249 0.759146 0.195222
176 1 0.726458 0.690956 0.297687
161 1 0.888659 0.742856 0.280368
172 1 0.965146 0.833251 0.199772
180 1 0.0148091 0.933214 0.252831
133 1 0.154097 0.934221 0.252348
164 1 0.352365 0.91495 0.28355
162 1 0.974247 0.902185 0.363444
29 1 0.630821 0.948898 0.336963
140 1 0.71795 0.833797 0.271574