ITEM: TIMESTEP
0
ITEM: NUMBER OF ATOMS
1000
ITEM: BOX BOUNDS pp pp pp
0.0000000000000000e+00 2.7149999999999999e+01
0.0000000000000000e+00 2.7149999999999999e+01
0.0000000000000000e+00 2.7149999999999999e+01
ITEM: ATOMS id type xs ys zs
1 1 0 0 0
5 1 0.05 0.05 0.05
9 1 0.2 0 0
13 1 0.25 0.05 0.05
17 1 0.4 0 0
21 1 0.45 0.05 0.05
25 1 0.6 0 0
29 1 0.65 0.05 0.05
33 1 0.8 0 0
37 1 0.85 0.05 0.05
4 1 0.1 0.1 0
8 1 0.15 0.15 0.05
12 1 0.3 0.1 0
16 1 0.35 0.15 0.05
20 1 0.5 0.1 0
24 1 0.55 0.15 0.05
28 1 0.7 0.1 0
32 1 0.75 0.15 0.05
36 1 0.9 0.1 0
40 1 0.95 0.15 0.05
41 1 0 0.2 0
45 1 0.05 0.25 0.05
49 1 0.2 0.2 0
53 1 0.25 0.25 0.05
57 1 0.4 0.2 0
61 1 0.45 0.25 0.05
65 1 0.6 0.2 0
69 1 0.65 0.25 0.05
73 1 0.8 0.2 0
77 1 0.85 0.25 0.05
44 1 0.1 0.3 0
48 1 0.15 0.35 0.05
52 1 0.3 0.3 0
56 1 0.35 0.35 0.05
60 1 0.5 0.3 0
64 1 0.55 0.35 0.05
68 1 0.7 0.3 0
72 1 0.75 0.35 0.05
76 1 0.9 0.3 0
80 1 0.95 0.35 0.05
81 1 0 0.4 0
85 1 0.05 0.45 0.05
89 1 0.2 0.4 0
93 1 0.25 0.45 0.05
97 1 0.4 0.4 0
101 1 0.45 0.45 0.05
105 1 0.6 0.4 0
109 1 0.65 0.45 0.05
113 1 0.8 0.4 0
117 1 0.85 0.45 0.05
84 1 0.1 0.5 0
88 1 0.15 0.55 0.05
92 1 0.3 0.5 0
96 1 0.35 0.55 0.05
100 1 0.5 0.5 0
104 1 0.55 0.55 0.05
108 1 0.7 0.5 0
112 1 0.75 0.55 0.05
116 1 0.9 0.5 0
120 1 0.95 0.55 0.05
121 1 0 0.6 0
125 1 0.05 0.65 0.05
129 1 0.2 0.6 0
133 1 0.25 0.65 0.05
137 1 0.4 0.6 0
141 1 0.45 0.65 0.05
145 1 0.6 0.6 0
149 1 0.65 0.65 0.05
153 1 0.8 0.6 0
157 1 0.85 0.65 0.05
124 1 0.1 0.7 0
128 1 0.15 0.75 0.05
132 1 0.3 0.7 0
136 1 0.35 0.75 0.05
140 1 0.5 0.7 0
144 1 0.55 0.75 0.05
148 1 0.7 0.7 0
152 1 0.75 0.75 0.05
156 1 0.9 0.7 0
160 1 0.95 0.75 0.05
161 1 0 0.8 0
165 1 0.05 0.85 0.05
169 1 0.2 0.8 0
173 1 0.25 0.85 0.05
177 1 0.4 0.8 0
181 1 0.45 0.85 0.05
185 1 0.6 0.8 0
189 1 0.65 0.85 0.05
193 1 0.8 0.8 0
197 1 0.85 0.85 0.05
164 1 0.1 0.9 0
168 1 0.15 0.95 0.05
172 1 0.3 0.9 0
176 1 0.35 0.95 0.05
180 1 0.5 0.9 0
184 1 0.55 0.95 0.05
188 1 0.7 0.9 0
192 1 0.75 0.95 0.05
196 1 0.9 0.9 0
200 1 0.95 0.95 0.05
3 1 0.1 0 0.1
7 1 0.15 0.05 0.15
11 1 0.3 0 0.1
15 1 0.35 0.05 0.15
19 1 0.5 0 0.1
23 1 0.55 0.05 0.15
27 1 0.7 0 0.1
31 1 0.75 0.05 0.15
35 1 0.9 0 0.1
39 1 0.95 0.05 0.15
2 1 0 0.1 0.1
6 1 0.05 0.15 0.15
10 1 0.2 0.1 0.1
14 1 0.25 0.15 0.15
18 1 0.4 0.1 0.1
22 1 0.45 0.15 0.15
26 1 0.6 0.1 0.1
30 1 0.65 0.15 0.15
34 1 0.8 0.1 0.1
38 1 0.85 0.15 0.15
43 1 0.1 0.2 0.1
47 1 0.15 0.25 0.15
51 1 0.3 0.2 0.1
55 1 0.35 0.25 0.15
59 1 0.5 0.2 0.1
63 1 0.55 0.25 0.15
67 1 0.7 0.2 0.1
71 1 0.75 0.25 0.15
75 1 0.9 0.2 0.1
79 1 0.95 0.25 0.15
42 1 0 0.3 0.1
46 1 0.05 0.35 0.15
50 1 0.2 0.3 0.1
54 1 0.25 0.35 0.15
58 1 0.4 0.3 0.1
62 1 0.45 0.35 0.15
66 1 0.6 0.3 0.1
70 1 0.65 0.35 0.15
74 1 0.8 0.3 0.1
78 1 0.85 0.35 0.15
83 1 0.1 0.4 0.1
87 1 0.15 0.45 0.15
91 1 0.3 0.4 0.1
95 1 0.35 0.45 0.15
99 1 0.5 0.4 0.1
103 1 0.55 0.45 0.15
107 1 0.7 0.4 0.1
111 1 0.75 0.45 0.15
115 1 0.9 0.4 0.1
119 1 0.95 0.45 0.15
82 1 0 0.5 0.1
86 1 0.05 0.55 0.15
90 1 0.2 0.5 0.1
94 1 0.25 0.55 0.15
98 1 0.4 0.5 0.1
102 1 0.45 0.55 0.15
106 1 0.6 0.5 0.1
110 1 0.65 0.55 0.15
114 1 0.8 0.5 0.1
118 1 0.85 0.55 0.15
123 1 0.1 0.6 0.1
127 1 0.15 0.65 0.15
131 1 0.3 0.6 0.1
135 1 0.35 0.65 0.15
139 1 0.5 0.6 0.1
143 1 0.55 0.65 0.15
147 1 0.7 0.6 0.1
151 1 0.75 0.65 0.15
155 1 0.9 0.6 0.1
159 1 0.95 0.65 0.15
122 1 0 0.7 0.1
126 1 0.05 0.75 0.15
130 1 0.2 0.7 0.1
134 1 0.25 0.75 0.15
138 1 0.4 0.7 0.1
142 1 0.45 0.75 0.15
146 1 0.6 0.7 0.1
150 1 0.65 0.75 0.15
154 1 0.8 0.7 0.1
158 1 0.85 0.75 0.15
163 1 0.1 0.8 0.1
167 1 0.15 0.85 0.15
171 1 0.3 0.8 0.1
175 1 0.35 0.85 0.15
179 1 0.5 0.8 0.1
183 1 0.55 0.85 0.15
187 1 0.7 0.8 0.1
191 1 0.75 0.85 0.15
195 1 0.9 0.8 0.1
199 1 0.95 0.85 0.15
162 1 0 0.9 0.1
166 1 0.05 0.95 0.15
170 1 0.2 0.9 0.1
174 1 0.25 0.95 0.15
178 1 0.4 0.9 0.1
182 1 0.45 0.95 0.15
186 1 0.6 0.9 0.1
190 1 0.65 0.95 0.15
194 1 0.8 0.9 0.1
198 1 0.85 0.95 0.15
201 1 0 0 0.2
205 1 0.05 0.05 0.25
209 1 0.2 0 0.2
213 1 0.25 0.05 0.25
217 1 0.4 0 0.2
221 1 0.45 0.05 0.25
225 1 0.6 0 0.2
229 1 0.65 0.05 0.25
233 1 0.8 0 0.2
237 1 0.85 0.05 0.25
204 1 0.1 0.1 0.2
208 1 0.15 0.15 0.25
212 1 0.3 0.1 0.2
216 1 0.35 0.15 0.25
220 1 0.5 0.1 0.2
224 1 0.55 0.15 0.25
228 1 0.7 0.1 0.2
232 1 0.75 0.15 0.25
236 1 0.9 0.1 0.2
240 1 0.95 0.15 0.25
241 1 0 0.2 0.2
245 1 0.05 0.25 0.25
249 1 0.2 0.2 0.2
253 1 0.25 0.25 0.25
257 1 0.4 0.2 0.2
261 1 0.45 0.25 0.25
265 1 0.6 0.2 0.2
269 1 0.65 0.25 0.25
273 1 0.8 0.2 0.2
277 1 0.85 0.25 0.25
244 1 0.1 0.3 0.2
248 1 0.15 0.35 0.25
252 1 0.3 0.3 0.2
256 1 0.35 0.35 0.25
260 1 0.5 0.3 0.2
264 1 0.55 0.35 0.25
268 1 0.7 0.3 0.2
272 1 0.75 0.35 0.25
276 1 0.9 0.3 0.2
280 1 0.95 0.35 0.25
281 1 0 0.4 0.2
285 1 0.05 0.45 0.25
289 1 0.2 0.4 0.2
293 1 0.25 0.45 0.25
297 1 0.4 0.4 0.2
301 1 0.45 0.45 0.25
305 1 0.6 0.4 0.2
309 1 0.65 0.45 0.25
313 1 0.8 0.4 0.2
317 1 0.85 0.45 0.25
284 1 0.1 0.5 0.2
288 1 0.15 0.55 0.25
292 1 0.3 0.5 0.2
296 1 0.35 0.55 0.25
300 1 0.5 0.5 0.2
304 1 0.55 0.55 0.25
308 1 0.7 0.5 0.2
312 1 0.75 0.55 0.25
316 1 0.9 0.5 0.2
320 1 0.95 0.55 0.25
321 1 0 0.6 0.2
325 1 0.05 0.65 0.25
329 1 0.2 0.6 0.2
333 1 0.25 0.65 0.25
337 1 0.4 0.6 0.2
341 1 0.45 0.65 0.25
345 1 0.6 0.6 0.2
349 1 0.65 0.65 0.25
353 1 0.8 0.6 0.2
357 1 0.85 0.65 0.25
324 1 0.1 0.7 0.2
328 1 0.15 0.75 0.25
332 1 0.3 0.7 0.2
336 1 0.35 0.75 0.25
340 1 0.5 0.7 0.2
344 1 0.55 0.75 0.25
348 1 0.7 0.7 0.2
352 1 0.75 0.75 0.25
356 1 0.9 0.7 0.2
360 1 0.95 0.75 0.25
361 1 0 0.8 0.2
365 1 0.05 0.85 0.25
369 1 0.2 0.8 0.2
373 1 0.25 0.85 0.25
377 1 0.4 0.8 0.2
381 1 0.45 0.85 0.25
385 1 0.6 0.8 0.2
389 1 0.65 0.85 0.25
393 1 0.8 0.8 0.2
397 1 0.85 0.85 0.25
364 1 0.1 0.9 0.2
368 1 0.15 0.95 0.25
372 1 0.3 0.9 0.2
376 1 0.35 0.95 0.25
380 1 0.5 0.9 0.2
384 1 0.55 0.95 0.25
388 1 0.7 0.9 0.2
392 1 0.75 0.95 0.25
396 1 0.9 0.9 0.2
400 1 0.95 0.95 0.25
203 1 0.1 0 0.3
207 1 0.15 0.05 0.35
211 1 0.3 0 0.3
215 1 0.35 0.05 0.35
219 1 0.5 0 0.3
223 1 0.55 0.05 0.35
227 1 0.7 0 0.3
231 1 0.75 0.05 0.35
235 1 0.9 0 0.3
239 1 0.95 0.05 0.35
202 1 0 0.1 0.3
206 1 0.05 0.15 0.35
210 1 0.2 0.1 0.3
214 1 0.25 0.15 0.35
218 1 0.4 0.1 0.3
222 1 0.45 0.15 0.35
226 1 0.6 0.1 0.3
230 1 0.65 0.15 0.35
234 1 0.8 0.1 0.3
238 1 0.85 0.15 0.35
243 1 0.1 0.2 0.3
247 1 0.15 0.25 0.35
251 1 0.3 0.2 0.3
255 1 0.35 0.25 0.35
259 1 0.5 0.2 0.3
263 1 0.55 0.25 0.35
267 1 0.7 0.2 0.3
271 1 0.75 0.25 0.35
275 1 0.9 0.2 0.3
279 1 0.95 0.25 0.35
242 1 0 0.3 0.3
246 1 0.05 0.35 0.35
250 1 0.2 0.3 0.3
254 1 0.25 0.35 0.35
258 1 0.4 0.3 0.3
262 1 0.45 0.35 0.35
266 1 0.6 0.3 0.3
270 1 0.65 0.35 0.35
274 1 0.8 0.3 0.3
278 1 0.85 0.35 0.35
283 1 0.1 0.4 0.3
287 1 0.15 0.45 0.35
291 1 0.3 0.4 0.3
295 1 0.35 0.45 0.35
299 1 0.5 0.4 0.3
303 1 0.55 0.45 0.35
307 1 0.7 0.4 0.3
311 1 0.75 0.45 0.35
315 1 0.9 0.4 0.3
319 1 0.95 0.45 0.35
282 1 0 0.5 0.3
286 1 0.05 0.55 0.35
290 1 0.2 0.5 0.3
294 1 0.25 0.55 0.35
298 1 0.4 0.5 0.3
302 1 0.45 0.55 0.35
306 1 0.6 0.5 0.3
310 1 0.65 0.55 0.35
314 1 0.8 0.5 0.3
318 1 0.85 0.55 0.35
323 1 0.1 0.6 0.3
327 1 0.15 0.65 0.35
331 1 0.3 0.6 0.3
335 1 0.35 0.65 0.35
339 1 0.5 0.6 0.3
343 1 0.55 0.65 0.35
347 1 0.7 0.6 0.3
351 1 0.75 0.65 0.35
355 1 0.9 0.6 0.3
359 1 0.95 0.65 0.35
322 1 0 0.7 0.3
326 1 0.05 0.75 0.35
330 1 0.2 0.7 0.3
334 1 0.25 0.75 0.35
338 1 0.4 0.7 0.3
342 1 0.45 0.75 0.35
346 1 0.6 0.7 0.3
350 1 0.65 0.75 0.35
354 1 0.8 0.7 0.3
358 1 0.85 0.75 0.35
363 1 0.1 0.8 0.3
367 1 0.15 0.85 0.35
371 1 0.3 0.8 0.3
375 1 0.35 0.85 0.35
379 1 0.5 0.8 0.3
383 1 0.55 0.85 0.35
387 1 0.7 0.8 0.3
391 1 0.75 0.85 0.35
395 1 0.9 0.8 0.3
399 1 0.95 0.85 0.35
362 1 0 0.9 0.3
366 1 0.05 0.95 0.35
370 1 0.2 0.9 0.3
374 1 0.25 0.95 0.35
378 1 0.4 0.9 0.3
382 1 0.45 0.95 0.35
386 1 0.6 0.9 0.3
390 1 0.65 0.95 0.35
394 1 0.8 0.9 0.3
398 1 0.85 0.95 0.35
401 1 0 0 0.4
405 1 0.05 0.05 0.45
409 1 0.2 0 0.4
413 1 0.25 0.05 0.45
417 1 0.4 0 0.4
421 1 0.45 0.05 0.45
425 1 0.6 0 0.4
429 1 0.65 0.05 0.45
433 1 0.8 0 0.4
437 1 0.85 0.05 0.45
404 1 0.1 0.1 0.4
408 1 0.15 0.15 0.45
412 1 0.3 0.1 0.4
416 1 0.35 0.15 0.45
420 1 0.5 0.1 0.4
424 1 0.55 0.15 0.45
428 1 0.7 0.1 0.4
432 1 0.75 0.15 0.45
436 1 0.9 0.1 0.4
440 1 0.95 0.15 0.45
441 1 0 0.2 0.4
445 1 0.05 0.25 0.45
449 1 0.2 0.2 0.4
453 1 0.25 0.25 0.45
457 1 0.4 0.2 0.4
461 1 0.45 0.25 0.45
465 1 0.6 0.2 0.4
469 1 0.65 0.25 0.45
473 1 0.8 0.2 0.4
477 1 0.85 0.25 0.45
444 1 0.1 0.3 0.4
448 1 0.15 0.35 0.45
452 1 0.3 0.3 0.4
456 1 0.35 0.35 0.45
460 1 0.5 0.3 0.4
464 1 0.55 0.35 0.45
468 1 0.7 0.3 0.4
472 1 0.75 0.35 0.45
476 1 0.9 0.3 0.4
480 1 0.95 0.35 0.45
481 1 0 0.4 0.4
485 1 0.05 0.45 0.45
489 1 0.2 0.4 0.4
493 1 0.25 0.45 0.45
497 1 0.4 0.4 0.4
501 1 0.45 0.45 0.45
505 1 0.6 0.4 0.4
509 1 0.65 0.45 0.45
513 1 0.8 0.4 0.4
517 1 0.85 0.45 0.45
484 1 0.1 0.5 0.4
488 1 0.15 0.55 0.45
492 1 0.3 0.5 0.4
496 1 0.35 0.55 0.45
500 1 0.5 0.5 0.4
504 1 0.55 0.55 0.45
508 1 0.7 0.5 0.4
512 1 0.75 0.55 0.45
516 1 0.9 0.5 0.4
520 1 0.95 0.55 0.45
521 1 0 0.6 0.4
525 1 0.05 0.65 0.45
529 1 0.2 0.6 0.4
533 1 0.25 0.65 0.45
537 1 0.4 0.6 0.4
541 1 0.45 0.65 0.45
545 1 0.6 0.6 0.4
549 1 0.65 0.65 0.45
553 1 0.8 0.6 0.4
557 1 0.85 0.65 0.45
524 1 0.1 0.7 0.4
528 1 0.15 0.75 0.45
532 1 0.3 0.7 0.4
536 1 0.35 0.75 0.45
540 1 0.5 0.7 0.4
544 1 0.55 0.75 0.45
548 1 0.7 0.7 0.4
552 1 0.75 0.75 0.45
556 1 0.9 0.7 0.4
560 1 0.95 0.75 0.45
561 1 0 0.8 0.4
565 1 0.05 0.85 0.45
569 1 0.2 0.8 0.4
573 1 0.25 0.85 0.45
577 1 0.4 0.8 0.4
581 1 0.45 0.85 0.45
585 1 0.6 0.8 0.4
589 1 0.65 0.85 0.45
593 1 0.8 0.8 0.4
597 1 0.85 0.85 0.45
564 1 0.1 0.9 0.4
568 1 0.15 0.95 0.45
572 1 0.3 0.9 0.4
576 1 0.35 0.95 0.45
580 1 0.5 0.9 0.4
584 1 0.55 0.95 0.45
588 1 0.7 0.9 0.4
592 1 0.75 0.95 0.45
596 1 0.9 0.9 0.4
600 1 0.95 0.95 0.45
403 1 0.1 0 0.5
407 1 0.15 0.05 0.55
411 1 0.3 0 0.5
415 1 0.35 0.05 0.55
419 1 0.5 0 0.5
423 1 0.55 0.05 0.55
427 1 0.7 0 0.5
431 1 0.75 0.05 0.55
435 1 0.9 0 0.5
439 1 0.95 0.05 0.55
402 1 0 0.1 0.5
406 1 0.05 0.15 0.55
410 1 0.2 0.1 0.5
414 1 0.25 0.15 0.55
418 1 0.4 0.1 0.5
422 1 0.45 0.15 0.55
426 1 0.6 0.1 0.5
430 1 0.65 0.15 0.55
434 1 0.8 0.1 0.5
438 1 0.85 0.15 0.55
443 1 0.1 0.2 0.5
447 1 0.15 0.25 0.55
451 1 0.3 0.2 0.5
455 1 0.35 0.25 0.55
459 1 0.5 0.2 0.5
463 1 0.55 0.25 0.55
467 1 0.7 0.2 0.5
471 1 0.75 0.25 0.55
475 1 0.9 0.2 0.5
479 1 0.95 0.25 0.55
442 1 0 0.3 0.5
446 1 0.05 0.35 0.55
450 1 0.2 0.3 0.5
454 1 0.25 0.35 0.55
458 1 0.4 0.3 0.5
462 1 0.45 0.35 0.55
466 1 0.6 0.3 0.5
470 1 0.65 0.35 0.55
474 1 0.8 0.3 0.5
478 1 0.85 0.35 0.55
483 1 0.1 0.4 0.5
487 1 0.15 0.45 0.55
491 1 0.3 0.4 0.5
495 1 0.35 0.45 0.55
499 1 0.5 0.4 0.5
503 1 0.55 0.45 0.55
507 1 0.7 0.4 0.5
511 1 0.75 0.45 0.55
515 1 0.9 0.4 0.5
519 1 0.95 0.45 0.55
482 1 0 0.5 0.5
486 1 0.05 0.55 0.55
490 1 0.2 0.5 0.5
494 1 0.25 0.55 0.55
498 1 0.4 0.5 0.5
502 1 0.45 0.55 0.55
506 1 0.6 0.5 0.5
510 1 0.65 0.55 0.55
514 1 0.8 0.5 0.5
518 1 0.85 0.55 0.55
523 1 0.1 0.6 0.5
527 1 0.15 0.65 0.55
531 1 0.3 0.6 0.5
535 1 0.35 0.65 0.55
539 1 0.5 0.6 0.5
543 1 0.55 0.65 0.55
547 1 0.7 0.6 0.5
551 1 0.75 0.65 0.55
555 1 0.9 0.6 0.5
559 1 0.95 0.65 0.55
522 1 0 0.7 0.5
526 1 0.05 0.75 0.55
530 1 0.2 0.7 0.5
534 1 0.25 0.75 0.55
538 1 0.4 0.7 0.5
542 1 0.45 0.75 0.55
546 1 0.6 0.7 0.5
550 1 0.65 0.75 0.55
554 1 0.8 0.7 0.5
558 1 0.85 0.75 0.55
563 1 0.1 0.8 0.5
567 1 0.15 0.85 0.55
571 1 0.3 0.8 0.5
575 1 0.35 0.85 0.55
579 1 0.5 0.8 0.5
583 1 0.55 0.85 0.55
587 1 0.7 0.8 0.5
591 1 0.75 0.85 0.55
595 1 0.9 0.8 0.5
599 1 0.95 0.85 0.55
562 1 0 0.9 0.5
566 1 0.05 0.95 0.55
570 1 0.2 0.9 0.5
574 1 0.25 0.95 0.55
578 1 0.4 0.9 0.5
582 1 0.45 0.95 0.55
586 1 0.6 0.9 0.5
590 1 0.65 0.95 0.55
594 1 0.8 0.9 0.5
598 1 0.85 0.95 0.55
601 1 0 0 0.6
605 1 0.05 0.05 0.65
609 1 0.2 0 0.6
613 1 0.25 0.05 0.65
617 1 0.4 0 0.6
621 1 0.45 0.05 0.65
625 1 0.6 0 0.6
629 1 0.65 0.05 0.65
633 1 0.8 0 0.6
637 1 0.85 0.05 0.65
604 1 0.1 0.1 0.6
608 1 0.15 0.15 0.65
612 1 0.3 0.1 0.6
616 1 0.35 0.15 0.65
620 1 0.5 0.1 0.6
624 1 0.55 0.15 0.65
628 1 0.7 0.1 0.6
632 1 0.75 0.15 0.65
636 1 0.9 0.1 0.6
640 1 0.95 0.15 0.65
641 1 0 0.2 0.6
645 1 0.05 0.25 0.65
649 1 0.2 0.2 0.6
653 1 0.25 0.25 0.65
657 1 0.4 0.2 0.6
661 1 0.45 0.25 0.65
665 1 0.6 0.2 0.6
669 1 0.65 0.25 0.65
673 1 0.8 0.2 0.6
677 1 0.85 0.25 0.65
644 1 0.1 0.3 0.6
648 1 0.15 0.35 0.65
652 1 0.3 0.3 0.6
656 1 0.35 0.35 0.65
660 1 0.5 0.3 0.6
664 1 0.55 0.35 0.65
668 1 0.7 0.3 0.6
672 1 0.75 0.35 0.65
676 1 0.9 0.3 0.6
680 1 0.95 0.35 0.65
681 1 0 0.4 0.6
685 1 0.05 0.45 0.65
689 1 0.2 0.4 0.6
693 1 0.25 0.45 0.65
697 1 0.4 0.4 0.6
701 1 0.45 0.45 0.65
705 1 0.6 0.4 0.6
709 1 0.65 0.45 0.65
713 1 0.8 0.4 0.6
717 1 0.85 0.45 0.65
684 1 0.1 0.5 0.6
688 1 0.15 0.55 0.65
692 1 0.3 0.5 0.6
696 1 0.35 0.55 0.65
700 1 0.5 0.5 0.6
704 1 0.55 0.55 0.65
708 1 0.7 0.5 0.6
712 1 0.75 0.55 0.65
716 1 0.9 0.5 0.6
720 1 0.95 0.55 0.65
721 1 0 0.6 0.6
725 1 0.05 0.65 0.65
729 1 0.2 0.6 0.6
733 1 0.25 0.65 0.65
737 1 0.4 0.6 0.6
741 1 0.45 0.65 0.65
745 1 0.6 0.6 0.6
749 1 0.65 0.65 0.65
753 1 0.8 0.6 0.6
757 1 0.85 0.65 0.65
724 1 0.1 0.7 0.6
728 1 0.15 0.75 0.65
732 1 0.3 0.7 0.6
736 1 0.35 0.75 0.65
740 1 0.5 0.7 0.6
744 1 0.55 0.75 0.65
748 1 0.7 0.7 0.6
752 1 0.75 0.75 0.65
756 1 0.9 0.7 0.6
760 1 0.95 0.75 0.65
761 1 0 0.8 0.6
765 1 0.05 0.85 0.65
769 1 0.2 0.8 0.6
773 1 0.25 0.85 0.65
777 1 0.4 0.8 0.6
781 1 0.45 0.85 0.65
785 1 0.6 0.8 0.6
789 1 0.65 0.85 0.65
793 1 0.8 0.8 0.6
797 1 0.85 0.85 0.65
764 1 0.1 0.9 0.6
768 1 0.15 0.95 0.65
772 1 0.3 0.9 0.6
776 1 0.35 0.95 0.65
780 1 0.5 0.9 0.6
784 1 0.55 0.95 0.65
788 1 0.7 0.9 0.6
792 1 0.75 0.95 0.65
796 1 0.9 0.9 0.6
800 1 0.95 0.95 0.65
603 1 0.1 0 0.7
607 1 0.15 0.05 0.75
611 1 0.3 0 0.7
615 1 0.35 0.05 0.75
619 1 0.5 0 0.7
623 1 0.55 0.05 0.75
627 1 0.7 0 0.7
631 1 0.75 0.05 0.75
635 1 0.9 0 0.7
639 1 0.95 0.05 0.75
602 1 0 0.1 0.7
606 1 0.05 0.15 0.75
610 1 0.2 0.1 0.7
614 1 0.25 0.15 0.75
618 1 0.4 0.1 0.7
622 1 0.45 0.15 0.75
626 1 0.6 0.1 0.7
630 1 0.65 0.15 0.75
634 1 0.8 0.1 0.7
638 1 0.85 0.15 0.75
643 1 0.1 0.2 0.7
647 1 0.15 0.25 0.75
651 1 0.3 0.2 0.7
655 1 0.35 0.25 0.75
659 1 0.5 0.2 0.7
663 1 0.55 0.25 0.75
667 1 0.7 0.2 0.7
671 1 0.75 0.25 0.75
675 1 0.9 0.2 0.7
679 1 0.95 0.25 0.75
642 1 0 0.3 0.7
646 1 0.05 0.35 0.75
650 1 0.2 0.3 0.7
654 1 0.25 0.35 0.75
658 1 0.4 0.3 0.7
662 1 0.45 0.35 0.75
666 1 0.6 0.3 0.7
670 1 0.65 0.35 0.75
674 1 0.8 0.3 0.7
678 1 0.85 0.35 0.75
683 1 0.1 0.4 0.7
687 1 0.15 0.45 0.75
691 1 0.3 0.4 0.7
695 1 0.35 0.45 0.75
699 1 0.5 0.4 0.7
703 1 0.55 0.45 0.75
707 1 0.7 0.4 0.7
711 1 0.75 0.45 0.75
715 1 0.9 0.4 0.7
719 1 0.95 0.45 0.75
682 1 0 0.5 0.7
686 1 0.05 0.55 0.75
690 1 0.2 0.5 0.7
694 1 0.25 0.55 0.75
698 1 0.4 0.5 0.7
702 1 0.45 0.55 0.75
706 1 0.6 0.5 0.7
710 1 0.65 0.55 0.75
714 1 0.8 0.5 0.7
718 1 0.85 0.55 0.75
723 1 0.1 0.6 0.7
727 1 0.15 0.65 0.75
731 1 0.3 0.6 0.7
735 1 0.35 0.65 0.75
739 1 0.5 0.6 0.7
743 1 0.55 0.65 0.75
747 1 0.7 0.6 0.7
751 1 0.75 0.65 0.75
755 1 0.9 0.6 0.7
759 1 0.95 0.65 0.75
722 1 0 0.7 0.7
726 1 0.05 0.75 0.75
730 1 0.2 0.7 0.7
734 1 0.25 0.75 0.75
738 1 0.4 0.7 0.7
742 1 0.45 0.75 0.75
746 1 0.6 0.7 0.7
750 1 0.65 0.75 0.75
754 1 0.8 0.7 0.7
758 1 0.85 0.75 0.75
763 1 0.1 0.8 0.7
767 1 0.15 0.85 0.75
771 1 0.3 0.8 0.7
775 1 0.35 0.85 0.75
779 1 0.5 0.8 0.7
783 1 0.55 0.85 0.75
787 1 0.7 0.8 0.7
791 1 0.75 0.85 0.75
795 1 0.9 0.8 0.7
799 1 0.95 0.85 0.75
762 1 0 0.9 0.7
766 1 0.05 0.95 0.75
770 1 0.2 0.9 0.7
774 1 0.25 0.95 0.75
778 1 0.4 0.9 0.7
782 1 0.45 0.95 0.75
786 1 0.6 0.9 0.7
790 1 0.65 0.95 0.75
794 1 0.8 0.9 0.7
798 1 0.85 0.95 0.75
801 1 0 0 0.8
805 1 0.05 0.05 0.85
809 1 0.2 0 0.8
813 1 0.25 0.05 0.85
817 1 0.4 0 0.8
821 1 0.45 0.05 0.85
825 1 0.6 0 0.8
829 1 0.65 0.05 0.85
833 1 0.8 0 0.8
837 1 0.85 0.05 0.85
804 1 0.1 0.1 0.8
808 1 0.15 0.15 0.85
812 1 0.3 0.1 0.8
816 1 0.35 0.15 0.85
820 1 0.5 0.1 0.8
824 1 0.55 0.15 0.85
828 1 0.7 0.1 0.8
832 1 0.75 0.15 0.85
836 1 0.9 0.1 0.8
840 1 0.95 0.15 0.85
841 1 0 0.2 0.8
845 1 0.05 0.25 0.85
849 1 0.2 0.2 0.8
853 1 0.25 0.25 0.85
857 1 0.4 0.2 0.8
861 1 0.45 0.25 0.85
865 1 0.6 0.2 0.8
869 1 0.65 0.25 0.85
873 1 0.8 0.2 0.8
877 1 0.85 0.25 0.85
844 1 0.1 0.3 0.8
848 1 0.15 0.35 0.85
852 1 0.3 0.3 0.8
856 1 0.35 0.35 0.85
860 1 0.5 0.3 0.8
864 1 0.55 0.35 0.85
868 1 0.7 0.3 0.8
872 1 0.75 0.35 0.85
876 1 0.9 0.3 0.8
880 1 0.95 0.35 0.85
881 1 0 0.4 0.8
885 1 0.05 0.45 0.85
889 1 0.2 0.4 0.8
893 1 0.25 0.45 0.85
897 1 0.4 0.4 0.8
901 1 0.45 0.45 0.85
905 1 0.6 0.4 0.8
909 1 0.65 0.45 0.85
913 1 0.8 0.4 0.8
917 1 0.85 0.45 0.85
884 1 0.1 0.5 0.8
888 1 0.15 0.55 0.85
892 1 0.3 0.5 0.8
896 1 0.35 0.55 0.85
900 1 0.5 0.5 0.8
904 1 0.55 0.55 0.85
908 1 0.7 0.5 0.8
912 1 0.75 0.55 0.85
916 1 0.9 0.5 0.8
920 1 0.95 0.55 0.85
921 1 0 0.6 0.8
925 1 0.05 0.65 0.85
929 1 0.2 0.6 0.8
933 1 0.25 0.65 0.85
937 1 0.4 0.6 0.8
941 1 0.45 0.65 0.85
945 1 0.6 0.6 0.8
949 1 0.65 0.65 0.85
953 1 0.8 0.6 0.8
957 1 0.85 0.65 0.85
924 1 0.1 0.7 0.8
928 1 0.15 0.75 0.85
932 1 0.3 0.7 0.8
936 1 0.35 0.75 0.85
940 1 0.5 0.7 0.8
944 1 0.55 0.75 0.85
948 1 0.7 0.7 0.8
952 1 0.75 0.75 0.85
956 1 0.9 0.7 0.8
960 1 0.95 0.75 0.85
961 1 0 0.8 0.8
965 1 0.05 0.85 0.85
969 1 0.2 0.8 0.8
973 1 0.25 0.85 0.85
977 1 0.4 0.8 0.8
981 1 0.45 0.85 0.85
985 1 0.6 0.8 0.8
989 1 0.65 0.85 0.85
993 1 0.8 0.8 0.8
997 1 0.85 0.85 0.85
964 1 0.1 0.9 0.8
968 1 0.15 0.95 0.85
972 1 0.3 0.9 0.8
976 1 0.35 0.95 0.85
980 1 0.5 0.9 0.8
984 1 0.55 0.95 0.85
988 1 0.7 0.9 0.8
992 1 0.75 0.95 0.85
996 1 0.9 0.9 0.8
1000 1 0.95 0.95 0.85
803 1 0.1 0 0.9
807 1 0.15 0.05 0.95
811 1 0.3 0 0.9
815 1 0.35 0.05 0.95
819 1 0.5 0 0.9
823 1 0.55 0.05 0.95
827 1 0.7 0 0.9
831 1 0.75 0.05 0.95
835 1 0.9 0 0.9
839 1 0.95 0.05 0.95
802 1 0 0.1 0.9
806 1 0.05 0.15 0.95
810 1 0.2 0.1 0.9
814 1 0.25 0.15 0.95
818 1 0.4 0.1 0.9
822 1 0.45 0.15 0.95
826 1 0.6 0.1 0.9
830 1 0.65 0.15 0.95
834 1 0.8 0.1 0.9
838 1 0.85 0.15 0.95
843 1 0.1 0.2 0.9
847 1 0.15 0.25 0.95
851 1 0.3 0.2 0.9
855 1 0.35 0.25 0.95
859 1 0.5 0.2 0.9
863 1 0.55 0.25 0.95
867 1 0.7 0.2 0.9
871 1 0.75 0.25 0.95
875 1 0.9 0.2 0.9
879 1 0.95 0.25 0.95
842 1 0 0.3 0.9
846 1 0.05 0.35 0.95
850 1 0.2 0.3 0.9
854 1 0.25 0.35 0.95
858 1 0.4 0.3 0.9
862 1 0.45 0.35 0.95
866 1 0.6 0.3 0.9
870 1 0.65 0.35 0.95
874 1 0.8 0.3 0.9
878 1 0.85 0.35 0.95
883 1 0.1 0.4 0.9
887 1 0.15 0.45 0.95
891 1 0.3 0.4 0.9
895 1 0.35 0.45 0.95
899 1 0.5 0.4 0.9
903 1 0.55 0.45 0.95
907 1 0.7 0.4 0.9
911 1 0.75 0.45 0.95
915 1 0.9 0.4 0.9
919 1 0.95 0.45 0.95
882 1 0 0.5 0.9
886 1 0.05 0.55 0.95
890 1 0.2 0.5 0.9
894 1 0.25 0.55 0.95
898 1 0.4 0.5 0.9
902 1 0.45 0.55 0.95
906 1 0.6 0.5 0.9
910 1 0.65 0.55 0.95
914 1 0.8 0.5 0.9
918 1 0.85 0.55 0.95
923 1 0.1 0.6 0.9
927 1 0.15 0.65 0.95
931 1 0.3 0.6 0.9
935 1 0.35 0.65 0.95
939 1 0.5 0.6 0.9
943 1 0.55 0.65 0.95
947 1 0.7 0.6 0.9
951 1 0.75 0.65 0.95
955 1 0.9 0.6 0.9
959 1 0.95 0.65 0.95
922 1 0 0.7 0.9
926 1 0.05 0.75 0.95
930 1 0.2 0.7 0.9
934 1 0.25 0.75 0.95
938 1 0.4 0.7 0.9
942 1 0.45 0.75 0.95
946 1 0.6 0.7 0.9
950 1 0.65 0.75 0.95
954 1 0.8 0.7 0.9
958 1 0.85 0.75 0.95
963 1 0.1 0.8 0.9
967 1 0.15 0.85 0.95
971 1 0.3 0.8 0.9
975 1 0.35 0.85 0.95
979 1 0.5 0.8 0.9
983 1 0.55 0.85 0.95
987 1 0.7 0.8 0.9
991 1 0.75 0.85 0.95
995 1 0.9 0.8 0.9
999 1 0.95 0.85 0.95
962 1 0 0.9 0.9
966 1 0.05 0.95 0.95
970 1 0.2 0.9 0.9
974 1 0.25 0.95 0.95
978 1 0.4 0.9 0.9
982 1 0.45 0.95 0.95
986 1 0.6 0.9 0.9
990 1 0.65 0.95 0.95
994 1 0.8 0.9 0.9
998 1 0.85 0.95 0.95
ITEM: TIMESTEP
1000
ITEM: NUMBER OF ATOMS
1000
ITEM: BOX BOUNDS pp pp pp
0.0000000000000000e+00 2.7149999999999999e+01
0.0000000000000000e+00 2.7149999999999999e+01
0.0000000000000000e+00 2.7149999999999999e+01
ITEM: ATOMS id type xs ys zs
1 1 0.0114064 0.988918 0.00293469
5 1 0.0452541 0.0601755 0.0419631
9 1 0.206354 0.999632 -0.000132328
13 1 0.260182 0.0514717 0.0451534
17 1 0.404941 0.00781513 0.983312
21 1 0.442638 0.0475255 0.0518602
25 1 0.591041 -0.00624375 0.996566
29 1 0.654742 0.0403643 0.0282497
33 1 0.811257 0.995373 0.00963913
37 1 0.85207 0.0548471 0.0618761
4 1 0.116485 0.096429 0.0064478
8 1 0.147277 0.159725 0.0534641
12 1 0.314236 0.0992833 0.986267
16 1 0.360439 0.145078 0.048837
20 1 0.499398 0.101314 0.0189292
24 1 0.553832 0.157202 0.0577393
28 1 0.720582 0.094294 -0.00112881
32 1 0.75172 0.158629 0.0539706
36 1 0.914447 0.0919527 0.018331
40 1 0.965091 0.155196 0.0488638
41 1 0.0131381 0.202571 1.00082
45 1 0.0575551 0.254512 0.0478302
49 1 0.197848 0.206251 0.00391404
53 1 0.264555 0.241118 0.0384599
57 1 0.418936 0.200437 0.00475691
61 1 0.466234 0.257182 0.0499726
65 1 0.615333 0.197273 0.0105204
69 1 0.66807 0.259197 0.0513088
73 1 0.804721 0.188465 0.990423
77 1 0.844897 0.248903 0.0342494
44 1 0.0982465 0.301956 0.990009
48 1 0.145793 0.345111 0.044097
52 1 0.317493 0.286952 0.990079
56 1 0.352123 0.339151 0.04561
60 1 0.514727 0.297307 0.993107
64 1 0.552526 0.339827 0.0591323
68 1 0.712026 0.308264 0.992619
72 1 0.739576 0.360864 0.0584217
76 1 0.889914 0.306201 -0.00464656
80 1 0.953124 0.351379 0.0501589
81 1 0.994848 0.401614 0.986507
85 1 0.0418493 0.460073 0.05018
89 1 0.198283 0.399651 0.00709477
93 1 0.261539 0.447269 0.044995
97 1 0.406149 0.389478 0.992134
101 1 0.449393 0.446908 0.0550212
105 1 0.592316 0.410473 0.000271784
109 1 0.643856 0.448269 0.0614618
113 1 0.79587 0.394442 0.0072489
117 1 0.845967 0.446622 0.0579052
84 1 0.0951006 0.500881 0.981643
88 1 0.142147 0.561374 0.0246851
92 1 0.305045 0.506468 0.00673479
96 1 0.35577 0.555707 0.0587726
100 1 0.498661 0.507872 0.00518512
104 1 0.546978 0.547503 0.0699939
108 1 0.696333 0.490642 0.00835679
112 1 0.743625 0.547944 0.0577657
116 1 0.89829 0.492501 1.00014
120 1 0.951748 0.538292 0.0487261
121 1 0.00650027 0.590229 1.00319
125 1 0.0578071 0.657288 0.0283476
129 1 0.200436 0.608703 0.982191
133 1 0.236241 0.64793 0.051231
137 1 0.398595 0.606168 0.996724
141 1 0.436115 0.668272 0.0413607
145 1 0.596349 0.589256 0.00665063
149 1 0.643006 0.644744 0.0554855
153 1 0.796791 0.590152 0.000647173
157 1 0.853115 0.644171 0.036502
124 1 0.110041 0.717818 0.998619
128 1 0.158012 0.770147 0.0479989
132 1 0.296678 0.682206 0.998892
136 1 0.334539 0.752585 0.0447253
140 1 0.506328 0.698514 0.999661
144 1 0.558639 0.748674 0.0432648
148 1 0.688305 0.689964 0.993386
152 1 0.74621 0.742991 0.044653
156 1 0.910397 0.698498 0.0017913
160 1 0.974786 0.745845 0.0381488
161 1 0.0102673 0.792612 0.968465
165 1 0.04324 0.855774 0.0266129
169 1 0.215234 0.814519 0.995523
173 1 0.249845 0.849408 0.0643408
177 1 0.38742 0.794068 0.992152
181 1 0.43435 0.844799 0.0457037
185 1 0.603963 0.802019 0.995633
189 1 0.657707 0.850841 0.0499102
193 1 0.801465 0.810547 0.00900549
197 1 0.855838 0.866315 0.0663977
164 1 0.11807 0.899817 -0.00665317
168 1 0.152888 0.955496 0.0618359
172 1 0.306778 0.899226 0.0112483
176 1 0.361843 0.959848 0.0464811
180 1 0.487823 0.889016 0.99363
184 1 0.534033 0.947926 0.0389376
188 1 0.703934 0.894607 0.989068
192 1 0.745737 0.949338 0.0400891
196 1 0.922712 0.898194 0.00631909
200 1 0.950835 0.955314 0.0610602
3 1 0.0937349 0.0186479 0.0981625
7 1 0.141042 0.0618608 0.152677
11 1 0.297296 0.992546 0.0935157
15 1 0.355791 0.0343873 0.1375
19 1 0.482847 0.989208 0.0986079
23 1 0.548901 0.0250492 0.139363
27 1 0.691935 0.993094 0.0938253
31 1 0.755555 0.0462833 0.137455
35 1 0.886348 0.992713 0.107394
39 1 0.930778 0.0503463 0.15478
2 1 0.998279 0.0983465 0.10873
6 1 0.0538044 0.143215 0.160079
10 1 0.195914 0.0966585 0.0916191
14 1 0.24476 0.13603 0.148748
18 1 0.406116 0.0983045 0.108065
22 1 0.466145 0.147181 0.148589
26 1 0.603875 0.0827233 0.0904536
30 1 0.638973 0.139908 0.1483
34 1 0.809108 0.10999 0.103932
38 1 0.862131 0.155704 0.157221
43 1 0.0953659 0.202946 0.108093
47 1 0.157893 0.259401 0.142037
51 1 0.300716 0.180928 0.100563
55 1 0.340897 0.235918 0.14634
59 1 0.508806 0.215124 0.10929
63 1 0.550683 0.262461 0.16411
67 1 0.69024 0.199041 0.111451
71 1 0.73465 0.257354 0.156485
75 1 0.902308 0.195871 0.0912566
79 1 0.945602 0.238871 0.154812
42 1 0.999123 0.293879 0.104285
46 1 0.0513078 0.345349 0.163522
50 1 0.221229 0.299128 0.0868506
54 1 0.254538 0.340448 0.149685
58 1 0.400937 0.293691 0.107443
62 1 0.431822 0.364167 0.155945
66 1 0.611182 0.294479 0.106732
70 1 0.633402 0.354883 0.16191
74 1 0.78074 0.285905 0.0851667
78 1 0.852007 0.3238 0.135088
83 1 0.0899036 0.396448 0.0965703
87 1 0.144259 0.459681 0.12616
91 1 0.302748 0.392501 0.10288
95 1 0.340648 0.445874 0.157936
99 1 0.50076 0.391195 0.113411
103 1 0.543761 0.446939 0.169464
107 1 0.692778 0.406398 0.121894
111 1 0.747834 0.449807 0.173614
115 1 0.894728 0.388975 0.0983578
119 1 0.938332 0.436416 0.156185
82 1 0.989223 0.498514 0.116093
86 1 0.0419172 0.562772 0.129658
90 1 0.199212 0.509704 0.0722202
94 1 0.234156 0.549132 0.152392
98 1 0.388033 0.489002 0.10142
102 1 0.432023 0.556549 0.157673
106 1 0.596387 0.495498 0.120437
110 1 0.656098 0.544351 0.162029
114 1 0.784965 0.487329 0.107774
118 1 0.840517 0.539235 0.152344
123 1 0.0999953 0.608312 0.0855403
127 1 0.151372 0.647349 0.146875
131 1 0.286526 0.592831 0.0961136
135 1 0.330349 0.65502 0.14183
139 1 0.472597 0.605767 0.0988495
143 1 0.53264 0.6493 0.151685
147 1 0.701963 0.606083 0.11522
151 1 0.753521 0.668567 0.156041
155 1 0.897364 0.588935 0.0895762
159 1 0.934984 0.650364 0.128254
122 1 0.00911019 0.684241 0.0933543
126 1 0.0538983 0.75603 0.131199
130 1 0.18941 0.709825 0.102085
134 1 0.239496 0.75115 0.163908
138 1 0.383903 0.710002 0.100296
142 1 0.43122 0.762461 0.147493
146 1 0.592385 0.697954 0.102802
150 1 0.647178 0.754227 0.151891
154 1 0.81313 0.702384 0.0988252
158 1 0.841262 0.766868 0.140347
163 1 0.0947064 0.809578 0.0785611
167 1 0.130359 0.854298 0.143874
171 1 0.297924 0.794269 0.112014
175 1 0.329476 0.859 0.153726
179 1 0.489198 0.794722 0.0899438
183 1 0.535631 0.840673 0.142555
187 1 0.700675 0.789866 0.0914215
191 1 0.752033 0.846011 0.138766
195 1 0.912457 0.806046 0.0905423
199 1 0.961435 0.841671 0.156006
162 1 -0.00285048 0.891165 0.100744
166 1 0.0455086 0.956596 0.13212
170 1 0.199891 0.899583 0.116632
174 1 0.249847 0.955746 0.155658
178 1 0.390413 0.899802 0.100568
182 1 0.449722 0.932639 0.154192
186 1 0.587133 0.893785 0.0889484
190 1 0.638204 0.942099 0.14485
194 1 0.794048 0.910632 0.105706
198 1 0.839036 0.940331 0.163411
201 1 0.987342 0.994825 0.185571
205 1 0.0469817 0.0378768 0.234641
209 1 0.198141 0.00732487 0.197629
213 1 0.249751 0.0472491 0.247739
217 1 0.407186 -0.00889857 0.195683
221 1 0.448791 0.0549617 0.241098
225 1 0.600095 0.997522 0.202413
229 1 0.653794 0.0593937 0.23752
233 1 0.79468 -0.000747889 0.201646
237 1 0.852191 0.0301746 0.25854
204 1 0.105517 0.103616 0.214504
208 1 0.166684 0.150853 0.252165
212 1 0.298269 0.0764902 0.18952
216 1 0.34238 0.149752 0.246172
220 1 0.510651 0.0866647 0.185422
224 1 0.534556 0.145804 0.24554
228 1 0.711424 0.110197 0.185815
232 1 0.761212 0.157929 0.244236
236 1 0.890454 0.0995227 0.212061
240 1 0.950665 0.157256 0.250566
241 1 0.00493163 0.199861 0.203721
245 1 0.0487044 0.259969 0.249511
249 1 0.19152 0.197354 0.187599
253 1 0.239532 0.256201 0.265265
257 1 0.399154 0.192385 0.201256
261 1 0.437072 0.249415 0.249602
265 1 0.587223 0.193649 0.19647
269 1 0.638401 0.243174 0.259096
273 1 0.804565 0.215416 0.197239
277 1 0.869991 0.258903 0.245518
244 1 0.114631 0.294621 0.202854
248 1 0.159229 0.364472 0.249706
252 1 0.292679 0.281489 0.200426
256 1 0.345621 0.341808 0.251672
260 1 0.488204 0.306091 0.19978
264 1 0.550327 0.350036 0.257384
268 1 0.685097 0.301497 0.216092
272 1 0.751127 0.353916 0.247737
276 1 0.918302 0.306645 0.192634
280 1 0.955921 0.3515 0.271816
281 1 0.996388 0.397571 0.205031
285 1 0.05459 0.447329 0.240707
289 1 0.194821 0.405023 0.177125
293 1 0.235529 0.452359 0.246631
297 1 0.390978 0.406741 0.219526
301 1 0.455536 0.45948 0.274974
305 1 0.602796 0.411064 0.221426
309 1 0.658825 0.462154 0.263894
313 1 0.812516 0.397056 0.195306
317 1 0.840719 0.449414 0.255416
284 1 0.0938616 0.510986 0.188438
288 1 0.142475 0.558038 0.237892
292 1 0.291318 0.503924 0.215545
296 1 0.352614 0.543516 0.260015
300 1 0.484059 0.51105 0.20843
304 1 0.54778 0.563258 0.253613
308 1 0.714532 0.515689 0.218478
312 1 0.75306 0.576776 0.270351
316 1 0.890648 0.495802 0.209448
320 1 0.959302 0.540244 0.245359
321 1 0.997616 0.598234 0.190407
325 1 0.0437859 0.65589 0.24076
329 1 0.202344 0.609729 0.198657
333 1 0.253325 0.656649 0.250678
337 1 0.378901 0.600951 0.197448
341 1 0.438047 0.645524 0.249417
345 1 0.591276 0.600684 0.189828
349 1 0.627729 0.658987 0.2551
353 1 0.803964 0.619747 0.209444
357 1 0.85894 0.677307 0.246098
324 1 0.093445 0.70195 0.191135
328 1 0.132729 0.750573 0.250286
332 1 0.304216 0.708444 0.207699
336 1 0.350612 0.766277 0.254352
340 1 0.475768 0.708345 0.201139
344 1 0.542378 0.764714 0.249147
348 1 0.682282 0.699325 0.204217
352 1 0.745612 0.74109 0.253771
356 1 0.903214 0.721479 0.181784
360 1 0.962458 0.759232 0.238054
361 1 0.0274165 0.801827 0.195578
365 1 0.0537713 0.863004 0.242844
369 1 0.175468 0.804167 0.204183
373 1 0.244523 0.848532 0.264241
377 1 0.39002 0.81817 0.201439
381 1 0.451124 0.858738 0.257767
385 1 0.589521 0.800801 0.191973
389 1 0.633802 0.850743 0.248054
393 1 0.792017 0.801116 0.205189
397 1 0.839363 0.85059 0.256998
364 1 0.0942067 0.922174 0.190922
368 1 0.150584 0.959044 0.252297
372 1 0.282337 0.903977 0.211225
376 1 0.349629 0.943577 0.244447
380 1 0.505704 0.891824 0.20454
384 1 0.543888 0.952767 0.257857
388 1 0.690842 0.890354 0.188332
392 1 0.734037 0.949341 0.235962
396 1 0.889239 0.88051 0.197353
400 1 0.944075 0.937277 0.240598
203 1 0.0843174 0.992077 0.297419
207 1 0.150144 0.0368109 0.347767
211 1 0.308472 0.995734 0.29695
215 1 0.348086 0.0394668 0.360804
219 1 0.486199 0.0043448 0.298128
223 1 0.533939 0.0581268 0.350582
227 1 0.692491 0.00352378 0.286606
231 1 0.764719 0.0366766 0.347001
235 1 0.908526 0.974691 0.307307
239 1 0.96383 0.0360041 0.334544
202 1 0.00647055 0.101166 0.291628
206 1 0.0612321 0.155197 0.327025
210 1 0.208634 0.0956445 0.309821
214 1 0.2473 0.147588 0.370775
218 1 0.391086 0.0948693 0.302044
222 1 0.438458 0.15708 0.34763