ITEM: TIMESTEP
2933000
ITEM: NUMBER OF ATOMS
200
ITEM: BOX BOUNDS pp pp pp
0.0000000000000000e+00 2.7149999999999999e+01
0.0000000000000000e+00 2.7149999999999999e+01
2.1719999999999999e+01 2.7149999999999999e+01
ITEM: ATOMS id type xs ys zs
179 1 0.186297 0.0365514 0.242549
156 1 0.114468 0.00841651 0.450475
48 1 0.262882 0.0701625 0.321629
187 1 0.321443 0.0161283 0.472646
176 1 0.611148 0.0821082 0.168299
191 1 0.743453 0.0403692 0.174685
131 1 0.82768 0.0254952 0.0861792
38 1 0.923809 0.0714539 0.505681
161 1 0.0450307 0.13654 0.100616
16 1 0.0920821 0.159013 0.447843
13 1 0.161816 0.183995 0.227384
55 1 0.398999 0.158312 0.441306
133 1 0.477169 0.126975 0.312778
71 1 0.692682 0.113862 0.115184
40 1 0.671362 0.172969 0.424458
197 1 0.833646 0.158914 0.386162
190 1 0.834457 0.109516 0.027217
180 1 0.962644 0.127448 0.217379
49 1 0.0797394 0.282343 0.265202
10 1 0.270686 0.2251 0.21822
86 1 0.309378 0.297415 0.108674
82 1 0.209229 0.229037 0.540293
68 1 0.322794 0.201215 0.525583
69 1 0.529415 0.206067 0.297952
66 1 0.542408 0.274319 0.00351971
29 1 0.664237 0.24806 0.217902
61 1 0.801537 0.238209 0.260703
193 1 0.947976 0.206884 0.330619
63 1 0.035982 0.341558 0.0479973
3 1 0.153013 0.381653 0.156305
81 1 0.12249 0.340002 0.509189
94 1 0.202932 0.312695 0.555519
136 1 0.337962 0.356926 0.411151
93 1 0.405261 0.36933 0.145135
109 1 0.450931 0.307469 0.387825
21 1 0.559788 0.357531 0.159281
106 1 0.6365 0.381974 0.360599
85 1 0.84646 0.366149 0.0692369
7 1 0.842946 0.369733 0.477921
194 1 0.981052 0.39495 0.27597
145 1 0.178232 0.467636 0.230677
99 1 0.266777 0.470077 0.1543
126 1 0.311678 0.437957 0.486126
163 1 0.450132 0.435904 0.349605
111 1 0.508692 0.480459 0.110511
164 1 0.698136 0.42672 0.128052
33 1 0.741361 0.483147 0.380475
95 1 0.988289 0.474991 0.431282
18 1 0.0654661 0.518902 0.425895
123 1 0.122245 0.532503 0.112187
147 1 0.270724 0.551711 0.29626
142 1 0.359682 0.540789 0.257336
104 1 0.468474 0.54827 -0.065368
4 1 0.567672 0.509133 0.378947
141 1 0.621621 0.551323 0.113873
117 1 0.693406 0.601444 0.171225
107 1 0.75516 0.544037 0.0920758
67 1 0.917654 0.507092 0.236358
200 1 0.939107 0.588989 0.172644
153 1 0.01663 0.623565 0.273511
121 1 0.0767874 0.675886 0.07621
52 1 0.116675 0.691879 0.44725
19 1 0.349867 0.690648 0.0566107
128 1 0.474891 0.607328 0.264511
183 1 0.54878 0.653092 0.148973
138 1 0.621753 0.691715 0.314612
165 1 0.692688 0.68693 0.0597599
23 1 0.867096 0.638974 0.289674
170 1 0.814554 0.69904 0.484428
88 1 0.306685 0.768176 0.0944605
184 1 0.468606 0.784257 0.0857656
84 1 0.434921 0.709059 -0.0686806
172 1 0.523807 0.725189 -0.0546035
171 1 0.599447 0.771446 0.397024
110 1 0.743317 0.733982 0.339745
59 1 0.857332 0.777728 0.0635889
112 1 0.976081 0.694654 0.371281
57 1 0.0771138 0.877136 0.25712
79 1 0.135937 0.819846 0.281025
11 1 0.186919 0.881595 0.447832
152 1 0.632408 0.828899 0.0994609
148 1 0.665359 0.874828 0.443514
154 1 0.773755 0.799587 0.0942402
195 1 0.914532 0.795861 0.383999
173 1 0.994964 0.891617 0.360872
65 1 0.955017 0.843108 0.0682451
62 1 0.0601596 0.991796 0.122748
27 1 0.242491 0.900998 0.141149
189 1 0.315978 0.930675 0.343673
132 1 0.476821 0.95967 0.339222
162 1 0.562089 0.939796 0.218597
140 1 0.622649 0.996586 0.0751589
15 1 0.705791 0.963672 0.101779
139 1 0.748966 0.914983 0.375755
92 1 0.983157 0.97134 0.258329
116 1 0.041376 0.0627027 0.886863
51 1 0.11029 0.0834483 0.65395
83 1 0.306925 0.0904653 0.960521
25 1 0.36932 0.0833099 0.623619
144 1 0.295483 0.00553834 0.868391
87 1 0.489855 0.0467196 0.426372
181 1 0.443078 0.0590598 0.7981
37 1 0.568172 0.0656053 0.548964
91 1 0.758894 0.042604 0.593741
182 1 0.845778 0.0320774 0.507075
14 1 0.990732 0.0197227 0.607598
168 1 0.0571304 0.19888 0.791615
20 1 0.169624 0.104639 0.988573
119 1 0.238453 0.109803 0.718299
129 1 0.261125 0.191815 0.819914
50 1 0.480544 0.134269 0.894043
56 1 0.432477 0.201841 0.774625
150 1 0.565219 0.128154 0.868933
80 1 0.594057 0.189929 0.601297
41 1 0.710617 0.171395 0.813017
6 1 0.780878 0.123986 0.694359
198 1 0.892744 0.192486 0.665268
28 1 0.913968 0.122198 0.867669
47 1 0.0176831 0.247169 0.507154
64 1 0.126622 0.241394 0.958147
77 1 0.360701 0.254575 0.823615
32 1 0.494761 0.252409 0.62046
5 1 0.618701 0.251932 0.857779
36 1 0.734194 0.250257 0.996828
113 1 0.849932 0.281041 0.969499
1 1 0.807826 0.294195 0.588012
175 1 0.929029 0.24789 0.956085
102 1 0.095796 0.391313 0.838811
76 1 0.186064 0.307697 0.978812
90 1 0.259181 0.345391 0.833075
103 1 0.397114 0.328894 0.727851
124 1 0.506538 0.370886 0.487303
26 1 0.653885 0.306469 0.571783
135 1 0.73477 0.325026 0.758496
60 1 0.769265 0.396391 0.913791
43 1 0.982062 0.304237 0.774882
74 1 0.929016 0.356567 0.556583
44 1 0.101671 0.4788 0.784977
199 1 0.181301 0.482488 0.648199
155 1 0.248389 0.430646 0.766455
96 1 0.385085 0.48259 0.566639
97 1 0.534854 0.413616 0.837896
149 1 0.60042 0.443917 0.612487
137 1 0.653958 0.484076 0.902625
151 1 0.80626 0.444238 0.597252
159 1 0.9221 0.401792 0.937838
118 1 0.951001 0.483361 0.835794
73 1 0.0341968 0.58844 0.652737
78 1 0.176051 0.594033 0.967918
31 1 0.201311 0.562925 0.575993
125 1 0.263068 0.578921 0.876585
72 1 0.383682 0.550179 0.843691
169 1 0.515197 0.566227 0.580803
75 1 0.7163 0.529662 0.723226
143 1 0.817083 0.600154 0.959417
158 1 0.877055 0.497448 0.611372
89 1 0.864223 0.581745 0.625526
178 1 0.109151 0.629291 0.739385
146 1 0.287623 0.661861 0.782166
122 1 0.350448 0.673199 0.477036
167 1 0.399118 0.603844 0.500623
42 1 0.579661 0.601419 0.820807
196 1 0.641247 0.660288 0.707463
46 1 0.71381 0.612507 0.582236
30 1 0.769969 0.664029 0.816482
120 1 0.944449 0.602629 0.753229
8 1 0.941794 0.68759 0.795011
127 1 0.0096374 0.728275 0.994716
157 1 0.0429339 0.727651 0.587042
70 1 0.177418 0.78758 0.915437
160 1 0.115276 0.777633 0.621472
45 1 0.237854 0.728623 0.932073
24 1 0.282338 0.780385 0.664093
192 1 0.404711 0.743255 0.56269
17 1 0.48487 0.707029 0.570349
9 1 0.513211 0.784961 0.449201
39 1 0.740608 0.783436 0.701082
114 1 0.8773 0.743111 0.684482
105 1 0.237313 0.850472 0.776058
54 1 0.360466 0.802114 0.806687
34 1 0.362646 0.88973 0.656947
134 1 0.491941 0.838931 0.77539
186 1 0.563519 0.87154 0.944729
101 1 0.654506 0.805001 0.690568
100 1 0.785424 0.841178 0.460207
2 1 0.868778 0.866269 0.509291
188 1 0.877093 0.855501 0.925788
115 1 0.994187 0.900894 0.776446
108 1 0.0731685 0.922225 0.867971
12 1 0.150235 0.945169 0.683112
53 1 0.213144 0.973753 0.943438
185 1 0.35447 0.945611 0.975872
130 1 0.436435 0.976411 0.963911
166 1 0.448935 0.912191 0.669223
98 1 0.599006 0.916472 0.590794
58 1 0.619049 0.998708 0.639245
22 1 0.752332 0.958714 0.749546
177 1 0.828539 0.94345 0.927211
174 1 0.877277 0.952599 0.58216
35 1 0.942706 0.971361 0.862559
