ITEM: TIMESTEP
3033009
ITEM: NUMBER OF ATOMS
850
ITEM: BOX BOUNDS pp pp ss
0.0000000000000000e+00 2.7149999999999999e+01
0.0000000000000000e+00 2.7149999999999999e+01
5.4335775041186709e+00 2.7513758630863784e+01
ITEM: ATOMS id type xs ys zs
201 1 0 0 0.000122961
205 1 0.05 0.05 0.0610524
203 1 0.1 3.93566e-17 0.122772
210 1 0.2 0.1 0.122772
209 1 0.2 0 0.000122961
213 1 0.25 0.05 0.0610524
211 1 0.3 5.87229e-15 0.122772
217 1 0.4 0 0.000122961
221 1 0.45 0.05 0.0610524
226 1 0.6 0.1 0.122772
225 1 0.6 1.96843e-18 0.000122961
229 1 0.65 0.05 0.0610524
234 1 0.8 0.1 0.122772
233 1 0.8 0 0.000122961
237 1 0.85 0.05 0.0610524
202 1 1 0.1 0.122772
204 1 0.1 0.1 0.000122961
208 1 0.15 0.15 0.0610524
212 1 0.3 0.1 0.000122961
216 1 0.35 0.15 0.0610524
218 1 0.4 0.1 0.122772
220 1 0.5 0.1 0.000122961
224 1 0.55 0.15 0.0610524
228 1 0.7 0.1 0.000122961
232 1 0.75 0.15 0.0610524
236 1 0.9 0.1 0.000122961
240 1 0.95 0.15 0.0610524
241 1 0 0.2 0.000122961
245 1 0.05 0.25 0.0610524
243 1 0.1 0.2 0.122772
250 1 0.2 0.3 0.122772
249 1 0.2 0.2 0.000122961
253 1 0.25 0.25 0.0610524
251 1 0.3 0.2 0.122772
258 1 0.4 0.3 0.122772
257 1 0.4 0.2 0.000122961
261 1 0.45 0.25 0.0610524
259 1 0.5 0.2 0.122772
266 1 0.6 0.3 0.122772
265 1 0.6 0.2 0.000122961
269 1 0.65 0.25 0.0610524
267 1 0.7 0.2 0.122772
274 1 0.8 0.3 0.122772
273 1 0.8 0.2 0.000122961
277 1 0.85 0.25 0.0610524
275 1 0.9 0.2 0.122772
242 1 1 0.3 0.122772
244 1 0.1 0.3 0.000122961
248 1 0.15 0.35 0.0610524
252 1 0.3 0.3 0.000122961
256 1 0.35 0.35 0.0610524
260 1 0.5 0.3 0.000122961
264 1 0.55 0.35 0.0610524
299 1 0.5 0.4 0.122772
268 1 0.7 0.3 0.000122961
272 1 0.75 0.35 0.0610524
276 1 0.9 0.3 0.000122961
280 1 0.95 0.35 0.0610524
281 1 0 0.4 0.000122961
285 1 0.05 0.45 0.0610524
283 1 0.1 0.4 0.122772
289 1 0.2 0.4 0.000122961
293 1 0.25 0.45 0.0610524
291 1 0.3 0.4 0.122772
298 1 0.4 0.5 0.122772
297 1 0.4 0.4 0.000122961
301 1 0.45 0.45 0.0610524
305 1 0.6 0.4 0.000122961
309 1 0.65 0.45 0.0610524
306 1 0.6 0.5 0.122772
307 1 0.7 0.4 0.122772
314 1 0.8 0.5 0.122772
313 1 0.8 0.4 0.000122961
317 1 0.85 0.45 0.0610524
315 1 0.9 0.4 0.122772
282 1 1 0.5 0.122772
284 1 0.1 0.5 0.000122961
288 1 0.15 0.55 0.0610524
290 1 0.2 0.5 0.122772
292 1 0.3 0.5 0.000122961
296 1 0.35 0.55 0.0610524
300 1 0.5 0.5 0.000122961
304 1 0.55 0.55 0.0610524
308 1 0.7 0.5 0.000122961
312 1 0.75 0.55 0.0610524
316 1 0.9 0.5 0.000122961
320 1 0.95 0.55 0.0610524
321 1 1.00661e-18 0.6 0.000122961
325 1 0.05 0.65 0.0610524
323 1 0.1 0.6 0.122772
330 1 0.2 0.7 0.122772
329 1 0.2 0.6 0.000122961
333 1 0.25 0.65 0.0610524
331 1 0.3 0.6 0.122772
338 1 0.4 0.7 0.122772
337 1 0.4 0.6 0.000122961
341 1 0.45 0.65 0.0610524
339 1 0.5 0.6 0.122772
345 1 0.6 0.6 0.000122961
349 1 0.65 0.65 0.0610524
347 1 0.7 0.6 0.122772
353 1 0.8 0.6 0.000122961
357 1 0.85 0.65 0.0610524
355 1 0.9 0.6 0.122772
322 1 1 0.7 0.122772
363 1 0.1 0.8 0.122772
324 1 0.1 0.7 0.000122961
328 1 0.15 0.75 0.0610524
332 1 0.3 0.7 0.000122961
336 1 0.35 0.75 0.0610524
371 1 0.3 0.8 0.122772
379 1 0.5 0.8 0.122772
340 1 0.5 0.7 0.000122961
344 1 0.55 0.75 0.0610524
346 1 0.6 0.7 0.122772
387 1 0.7 0.8 0.122772
348 1 0.7 0.7 0.000122961
352 1 0.75 0.75 0.0610524
354 1 0.8 0.7 0.122772
356 1 0.9 0.7 0.000122961
360 1 0.95 0.75 0.0610524
395 1 0.9 0.8 0.122772
361 1 0 0.8 0.000122961
365 1 0.05 0.85 0.0610524
370 1 0.2 0.9 0.122772
369 1 0.2 0.8 0.000122961
373 1 0.25 0.85 0.0610524
377 1 0.4 0.8 0.000122961
381 1 0.45 0.85 0.0610524
386 1 0.6 0.9 0.122772
385 1 0.6 0.8 0.000122961
389 1 0.65 0.85 0.0610524
393 1 0.8 0.8 0.000122961
397 1 0.85 0.85 0.0610524
364 1 0.1 0.9 0.000122961
368 1 0.15 0.95 0.0610524
372 1 0.3 0.9 0.000122961
376 1 0.35 0.95 0.0610524
219 1 0.5 1 0.122772
378 1 0.4 0.9 0.122772
380 1 0.5 0.9 0.000122961
384 1 0.55 0.95 0.0610524
227 1 0.7 1 0.122772
388 1 0.7 0.9 0.000122961
392 1 0.75 0.95 0.0610524
394 1 0.8 0.9 0.122772
396 1 0.9 0.9 0.000122961
400 1 0.95 0.95 0.0610524
235 1 0.9 1 0.122772
362 1 1 0.9 0.122772
401 1 3.36059e-12 2.71081e-12 0.24576
207 1 0.15 0.05 0.184278
215 1 0.35 0.05 0.184278
223 1 0.55 0.05 0.184278
425 1 0.6 2.51432e-12 0.24576
231 1 0.75 0.05 0.184278
433 1 0.8 6.4675e-12 0.24576
239 1 0.95 0.05 0.184278
206 1 0.05 0.15 0.184278
404 1 0.1 0.1 0.24576
441 1 1.15741e-11 0.2 0.24576
214 1 0.25 0.15 0.184278
412 1 0.3 0.1 0.24576
449 1 0.2 0.2 0.24576
222 1 0.45 0.15 0.184278
420 1 0.5 0.1 0.24576
230 1 0.65 0.15 0.184278
465 1 0.6 0.2 0.24576
428 1 0.7 0.1 0.24576
238 1 0.85 0.15 0.184278
436 1 0.9 0.1 0.24576
473 1 0.8 0.2 0.24576
247 1 0.15 0.25 0.184278
255 1 0.35 0.25 0.184278
457 1 0.4 0.2 0.24576
263 1 0.55 0.25 0.184278
271 1 0.75 0.25 0.184278
279 1 0.95 0.25 0.184278
246 1 0.05 0.35 0.184278
444 1 0.1 0.3 0.24576
481 1 1.08632e-11 0.4 0.24576
254 1 0.25 0.35 0.184278
489 1 0.2 0.4 0.24576
452 1 0.3 0.3 0.24576
262 1 0.45 0.35 0.184278
460 1 0.5 0.3 0.24576
505 1 0.6 0.4 0.24576
270 1 0.65 0.35 0.184278
468 1 0.7 0.3 0.24576
278 1 0.85 0.35 0.184278
476 1 0.9 0.3 0.24576
513 1 0.8 0.4 0.24576
287 1 0.15 0.45 0.184278
295 1 0.35 0.45 0.184278
497 1 0.4 0.4 0.24576
303 1 0.55 0.45 0.184278
311 1 0.75 0.45 0.184278
319 1 0.95 0.45 0.184278
286 1 0.05 0.55 0.184278
484 1 0.1 0.5 0.24576
294 1 0.25 0.55 0.184278
492 1 0.3 0.5 0.24576
529 1 0.2 0.6 0.24576
302 1 0.45 0.55 0.184278
537 1 0.4 0.6 0.24576
500 1 0.5 0.5 0.24576
545 1 0.6 0.6 0.24576
310 1 0.65 0.55 0.184278
508 1 0.7 0.5 0.24576
318 1 0.85 0.55 0.184278
516 1 0.9 0.5 0.24576
553 1 0.8 0.6 0.24576
521 1 1.22799e-12 0.6 0.24576
327 1 0.15 0.65 0.184278
335 1 0.35 0.65 0.184278
343 1 0.55 0.65 0.184278
540 1 0.5 0.7 0.24576
548 1 0.7 0.7 0.24576
351 1 0.75 0.65 0.184278
359 1 0.95 0.65 0.184278
326 1 0.05 0.75 0.184278
524 1 0.1 0.7 0.24576
334 1 0.25 0.75 0.184278
532 1 0.3 0.7 0.24576
342 1 0.45 0.75 0.184278
350 1 0.65 0.75 0.184278
358 1 0.85 0.75 0.184278
593 1 0.8 0.8 0.24576
556 1 0.9 0.7 0.24576
564 1 0.1 0.9 0.24576
367 1 0.15 0.85 0.184278
569 1 0.2 0.8 0.24576
572 1 0.3 0.9 0.24576
375 1 0.35 0.85 0.184278
577 1 0.4 0.8 0.24576
383 1 0.55 0.85 0.184278
585 1 0.6 0.8 0.24576
391 1 0.75 0.85 0.184278
588 1 0.7 0.9 0.24576
596 1 0.9 0.9 0.24576
399 1 0.95 0.85 0.184278
561 1 1 0.8 0.24576
366 1 0.05 0.95 0.184278
374 1 0.25 0.95 0.184278
409 1 0.2 1 0.24576
417 1 0.4 1 0.24576
382 1 0.45 0.95 0.184278
580 1 0.5 0.9 0.24576
390 1 0.65 0.95 0.184278
398 1 0.85 0.95 0.184278
405 1 0.05 0.05 0.30724
403 1 0.1 2.20922e-09 0.368721
410 1 0.2 0.1 0.368721
413 1 0.25 0.05 0.30724
411 1 0.3 3.49032e-09 0.368721
418 1 0.4 0.1 0.368721
421 1 0.45 0.05 0.30724
419 1 0.5 2.71733e-09 0.368721
429 1 0.65 0.05 0.30724
426 1 0.6 0.1 0.368721
434 1 0.8 0.1 0.368721
437 1 0.85 0.05 0.30724
402 1 1 0.1 0.368721
408 1 0.15 0.15 0.30724
416 1 0.35 0.15 0.30724
451 1 0.3 0.2 0.368721
459 1 0.5 0.2 0.368721
424 1 0.55 0.15 0.30724
432 1 0.75 0.15 0.30724
440 1 0.95 0.15 0.30724
445 1 0.05 0.25 0.30724
443 1 0.1 0.2 0.368721
450 1 0.2 0.3 0.368721
453 1 0.25 0.25 0.30724
458 1 0.4 0.3 0.368721
461 1 0.45 0.25 0.30724
469 1 0.65 0.25 0.30724
467 1 0.7 0.2 0.368721
466 1 0.6 0.3 0.368721
474 1 0.8 0.3 0.368721
477 1 0.85 0.25 0.30724
475 1 0.9 0.2 0.368721
442 1 1 0.3 0.368721
448 1 0.15 0.35 0.30724
456 1 0.35 0.35 0.30724
464 1 0.55 0.35 0.30724
472 1 0.75 0.35 0.30724
480 1 0.95 0.35 0.30724
485 1 0.05 0.45 0.30724
483 1 0.1 0.4 0.368721
493 1 0.25 0.45 0.30724
490 1 0.2 0.5 0.368721
491 1 0.3 0.4 0.368721
498 1 0.4 0.5 0.368721
501 1 0.45 0.45 0.30724
499 1 0.5 0.4 0.368721
509 1 0.65 0.45 0.30724
506 1 0.6 0.5 0.368721
507 1 0.7 0.4 0.368721
517 1 0.85 0.45 0.30724
515 1 0.9 0.4 0.368721
482 1 1 0.5 0.368721
488 1 0.15 0.55 0.30724
523 1 0.1 0.6 0.368721
496 1 0.35 0.55 0.30724
504 1 0.55 0.55 0.30724
512 1 0.75 0.55 0.30724
514 1 0.8 0.5 0.368721
520 1 0.95 0.55 0.30724
525 1 0.05 0.65 0.30724
522 1 3.43862e-09 0.7 0.368721
530 1 0.2 0.7 0.368721
533 1 0.25 0.65 0.30724
531 1 0.3 0.6 0.368721
538 1 0.4 0.7 0.368721
541 1 0.45 0.65 0.30724
539 1 0.5 0.6 0.368721
549 1 0.65 0.65 0.30724
546 1 0.6 0.7 0.368721
547 1 0.7 0.6 0.368721
554 1 0.8 0.7 0.368721
557 1 0.85 0.65 0.30724
555 1 0.9 0.6 0.368721
528 1 0.15 0.75 0.30724
563 1 0.1 0.8 0.368721
536 1 0.35 0.75 0.30724
571 1 0.3 0.8 0.368721
579 1 0.5 0.8 0.368721
544 1 0.55 0.75 0.30724
552 1 0.75 0.75 0.30724
595 1 0.9 0.8 0.368721
560 1 0.95 0.75 0.30724
565 1 0.05 0.85 0.30724
570 1 0.2 0.9 0.368721
573 1 0.25 0.85 0.30724
581 1 0.45 0.85 0.30724
589 1 0.65 0.85 0.30724
586 1 0.6 0.9 0.368721
587 1 0.7 0.8 0.368721
597 1 0.85 0.85 0.30724
562 1 3.20342e-09 0.9 0.368721
568 1 0.15 0.95 0.30724
576 1 0.35 0.95 0.30724
578 1 0.4 0.9 0.368721
584 1 0.55 0.95 0.30724
427 1 0.7 1 0.368721
592 1 0.75 0.95 0.30724
594 1 0.8 0.9 0.368721
600 1 0.95 0.95 0.30724
435 1 0.9 1 0.368721
407 1 0.15 0.05 0.430201
415 1 0.35 0.05 0.430201
423 1 0.55 0.0499999 0.430201
620 1 0.500004 0.0999989 0.491681
625 1 0.600001 7.78868e-08 0.491679
431 1 0.75 0.0500001 0.430201
633 1 0.8 2.08282e-06 0.491679
628 1 0.700001 0.0999992 0.491677
439 1 0.95 0.0500001 0.430201
406 1 0.0500001 0.15 0.430201
604 1 0.0999972 0.100002 0.49168
641 1 3.35752e-06 0.199995 0.491679
414 1 0.25 0.15 0.430201
612 1 0.299999 0.1 0.491682
649 1 0.200001 0.199999 0.491682
422 1 0.45 0.15 0.430201
430 1 0.65 0.15 0.430201
438 1 0.85 0.15 0.430201
636 1 0.899996 0.100001 0.491677
673 1 0.800004 0.199996 0.491677
447 1 0.15 0.25 0.430201
455 1 0.35 0.25 0.430201
657 1 0.400001 0.200005 0.491682
463 1 0.55 0.25 0.430201
665 1 0.599998 0.200004 0.491679
660 1 0.500005 0.299998 0.491675
471 1 0.75 0.25 0.430202
479 1 0.95 0.25 0.430202
446 1 0.0500001 0.35 0.430201
644 1 0.0999939 0.300003 0.491678
681 1 3.42234e-06 0.399995 0.491677
454 1 0.25 0.35 0.430201
652 1 0.299999 0.300001 0.49168
689 1 0.200001 0.399997 0.491681
462 1 0.45 0.35 0.430201
697 1 0.400009 0.399998 0.49168
470 1 0.65 0.35 0.430201
668 1 0.700001 0.300002 0.49168
478 1 0.85 0.35 0.430201
676 1 0.899995 0.300005 0.491679
713 1 0.800002 0.399999 0.491678
684 1 0.0999971 0.5 0.491681
487 1 0.15 0.45 0.430201
495 1 0.35 0.45 0.430201
503 1 0.55 0.45 0.430201
705 1 0.599999 0.400001 0.491681
708 1 0.7 0.499999 0.491679
511 1 0.75 0.45 0.430201
716 1 0.899999 0.5 0.491681
519 1 0.95 0.45 0.430201
486 1 0.05 0.55 0.430201
494 1 0.25 0.55 0.430201
692 1 0.299998 0.500007 0.491677
502 1 0.449999 0.55 0.4302
700 1 0.499999 0.500014 0.491666
737 1 0.40001 0.599992 0.491666
745 1 0.599996 0.599997 0.491677
510 1 0.65 0.55 0.430201
518 1 0.85 0.55 0.430201
753 1 0.800001 0.599999 0.491681
527 1 0.15 0.65 0.430201
729 1 0.2 0.600002 0.491682
535 1 0.350001 0.650001 0.430201
543 1 0.55 0.650001 0.430201
551 1 0.75 0.65 0.430201
559 1 0.95 0.65 0.430201
721 1 1 0.6 0.491681
526 1 0.0499999 0.75 0.430201
724 1 0.0999999 0.700001 0.491681
534 1 0.25 0.749999 0.430201
732 1 0.299994 0.7 0.49167
769 1 0.200001 0.799998 0.491681
542 1 0.449999 0.749999 0.4302
777 1 0.400011 0.799999 0.491663
740 1 0.500006 0.700013 0.491658
785 1 0.599995 0.799987 0.49168
550 1 0.65 0.75 0.430201
748 1 0.7 0.700003 0.49168
558 1 0.85 0.75 0.430201
756 1 0.9 0.700002 0.49168
764 1 0.0999998 0.899999 0.491681
567 1 0.15 0.85 0.430201
575 1 0.350001 0.85 0.430201
583 1 0.55 0.85 0.430202
591 1 0.75 0.85 0.430201
793 1 0.800001 0.800001 0.491677
599 1 0.95 0.85 0.430201
761 1 0.999998 0.800002 0.491678
796 1 0.900002 0.899998 0.491679
566 1 0.05 0.95 0.430201
601 1 2.90193e-07 1 0.49168
574 1 0.25 0.95 0.430201
609 1 0.200001 0.999999 0.491681
772 1 0.299998 0.900001 0.491681
617 1 0.4 0.999999 0.491681
582 1 0.45 0.95 0.430201
780 1 0.499995 0.900001 0.491681
590 1 0.65 0.95 0.430201
788 1 0.700001 0.900001 0.491679
598 1 0.85 0.95 0.430201
605 1 0.0499975 0.0499961 0.553128
603 1 0.100096 0.000130254 0.614297
613 1 0.24999 0.0500127 0.553152
611 1 0.300326 0.000319982 0.614344
621 1 0.449993 0.0499848 0.553153
629 1 0.649989 0.0500122 0.553078
637 1 0.85006 0.04995 0.55304
602 1 0.999588 0.0995718 0.614073
608 1 0.150014 0.149989 0.553133
610 1 0.200002 0.100031 0.614522
651 1 0.299999 0.199905 0.614516
616 1 0.349998 0.150002 0.55316
618 1 0.399998 0.100004 0.614651
659 1 0.498249 0.198381 0.613034
624 1 0.550027 0.149963 0.553092
626 1 0.600292 0.100158 0.614094
632 1 0.749883 0.150091 0.552987
634 1 0.800159 0.100441 0.612033
640 1 0.950028 0.149969 0.553098
645 1 0.0499858 0.250004 0.553098
643 1 0.100708 0.200709 0.613817
650 1 0.199726 0.299878 0.6142
653 1 0.250014 0.250008 0.553148
658 1 0.399797 0.299846 0.61437
661 1 0.449967 0.25006 0.553078
669 1 0.650008 0.250027 0.553122
674 1 0.79899 0.299007 0.61364
667 1 0.700193 0.200193 0.614407
677 1 0.849987 0.250001 0.553089
675 1 0.901026 0.200989 0.613442
642 1 0.999289 0.299301 0.613876
648 1 0.150022 0.349961 0.553079
656 1 0.350004 0.349972 0.553122
691 1 0.30005 0.399962 0.61394
664 1 0.54999 0.349989 0.553104
666 1 0.600628 0.300647 0.613892
707 1 0.699756 0.399686 0.614366
672 1 0.749988 0.350014 0.553108
680 1 0.950007 0.350005 0.553094
685 1 0.0499636 0.450031 0.553096
683 1 0.101241 0.40119 0.613064
693 1 0.250018 0.449997 0.553144
698 1 0.397072 0.496485 0.611385
701 1 0.450146 0.449896 0.552932
699 1 0.500042 0.400023 0.614151
706 1 0.599663 0.499751 0.613869
709 1 0.650003 0.450001 0.553134
717 1 0.850005 0.450003 0.553117
715 1 0.900648 0.400589 0.613898
688 1 0.14999 0.550005 0.553151
731 1 0.299064 0.599157 0.613497
690 1 0.20014 0.500177 0.614218
696 1 0.349919 0.55 0.552986
704 1 0.55003 0.549951 0.552982
712 1 0.749993 0.550009 0.553123
714 1 0.800343 0.500415 0.614213
720 1 0.950001 0.550004 0.553146
682 1 0.999856 0.500003 0.614331
725 1 0.0500052 0.649993 0.553141
723 1 0.100038 0.60007 0.614483
730 1 0.199823 0.699663 0.614221
733 1 0.249993 0.650014 0.553102
738 1 0.399489 0.699446 0.61255
741 1 0.450303 0.649806 0.552758
739 1 0.500519 0.60053 0.612251
749 1 0.650118 0.649896 0.552972
746 1 0.601559 0.699667 0.611965
754 1 0.799027 0.699087 0.613248
747 1 0.700439 0.600517 0.614037
757 1 0.850013 0.649969 0.553123
755 1 0.900051 0.600017 0.614513
722 1 0.000128791 0.70004 0.614363
728 1 0.14998 0.75 0.553153
736 1 0.349672 0.750347 0.552858
744 1 0.550078 0.749909 0.553079
752 1 0.749961 0.750043 0.553097
795 1 0.899556 0.799479 0.613346
760 1 0.950027 0.74999 0.5531
765 1 0.050022 0.849977 0.553098
763 1 0.099924 0.800114 0.614394
770 1 0.199957 0.899919 0.614256
773 1 0.250001 0.850001 0.553138
771 1 0.300235 0.800274 0.614257
781 1 0.449826 0.850176 0.552939
779 1 0.501902 0.803476 0.61
786 1 0.599571 0.899486 0.614012
789 1 0.650007 0.849984 0.553106
787 1 0.699597 0.800241 0.613713
797 1 0.849984 0.849996 0.553082
762 1 0.000514711 0.900525 0.613315
768 1 0.149998 0.950003 0.553143
776 1 0.35001 0.949992 0.553146
619 1 0.499691 0.999792 0.614234
778 1 0.400175 0.900149 0.614487
784 1 0.550002 0.950014 0.553127
627 1 0.699727 0.999844 0.61366
792 1 0.749999 0.949993 0.553115
635 1 0.899898 0.99997 0.614397
794 1 0.800281 0.900161 0.614115
800 1 0.949977 0.95004 0.553103
801 1 0.0110957 0.00989566 0.73456
607 1 0.150514 0.0490382 0.673152
804 1 0.292754 0.0905602 0.735966
615 1 0.350086 0.0499794 0.676308
623 1 0.545369 0.0548031 0.668021
808 1 0.689825 0.0899288 0.723779
631 1 0.755583 0.0453437 0.667894
639 1 0.948589 0.0510569 0.672303
802 1 0.0948084 0.0933409 0.732015
606 1 0.0509101 0.15013 0.66988
813 1 0.189758 0.182797 0.734479
614 1 0.250747 0.148844 0.675096
815 1 0.394195 0.190397 0.738968
622 1 0.449876 0.149847 0.676461
806 1 0.514295 0.112589 0.739207
630 1 0.649557 0.151024 0.673688
819 1 0.784961 0.185365 0.722556
638 1 0.851875 0.15202 0.669332
810 1 0.909329 0.114314 0.73205
811 1 0.0210828 0.224596 0.729814
647 1 0.151162 0.248817 0.673903
655 1 0.351311 0.248621 0.67349
663 1 0.55191 0.245397 0.661015
817 1 0.599012 0.204949 0.73984
671 1 0.749327 0.25054 0.675423
679 1 0.949296 0.250549 0.675148
646 1 0.051402 0.350717 0.664758
812 1 0.115734 0.322373 0.72137
654 1 0.246459 0.353935 0.669734
814 1 0.311076 0.315414 0.717946
662 1 0.44827 0.352403 0.672208
670 1 0.650119 0.349568 0.675689
818 1 0.707671 0.310437 0.735202
829 1 0.759111 0.385577 0.739769
820 1 0.895506 0.296928 0.733735
678 1 0.850207 0.348317 0.66644
821 1 0.0238966 0.422237 0.719372
822 1 0.083838 0.484573 0.725005
687 1 0.150883 0.450794 0.67309
823 1 0.214233 0.41562 0.737739
695 1 0.347036 0.451359 0.671669
825 1 0.41553 0.419066 0.71969
826 1 0.486831 0.469137 0.733096
703 1 0.552661 0.447171 0.671808
828 1 0.682571 0.489621 0.729524
827 1 0.646981 0.415466 0.757612
711 1 0.749355 0.450524 0.673104
830 1 0.870772 0.471402 0.722479
719 1 0.948928 0.450801 0.673279
686 1 0.0506946 0.5486 0.673001
833 1 0.18569 0.587863 0.737106
694 1 0.24867 0.550812 0.673463
824 1 0.321773 0.520393 0.731952
835 1 0.38242 0.58048 0.722403
702 1 0.442093 0.553216 0.652937
104 1 0.467861 0.560076 0.744703
710 1 0.649247 0.549491 0.669763
839 1 0.791529 0.590667 0.740316
718 1 0.848956 0.551555 0.674409
831 1 0.990129 0.598782 0.741205
727 1 0.151609 0.649525 0.674566
834 1 0.298101 0.701417 0.732761
735 1 0.348079 0.647891 0.670657
743 1 0.549268 0.650852 0.670457
837 1 0.615064 0.613995 0.717394
751 1 0.752237 0.64927 0.672848
759 1 0.949875 0.651885 0.672624
726 1 0.0506719 0.749895 0.67332
832 1 0.121241 0.721769 0.725737
843 1 0.181552 0.783899 0.726602
734 1 0.249259 0.752237 0.674499
84 1 0.424452 0.705056 0.723209
742 1 0.450876 0.758534 0.662555
172 1 0.536788 0.73851 0.71658
847 1 0.594017 0.797266 0.735595
750 1 0.647845 0.750868 0.672536
838 1 0.720742 0.723164 0.717683
849 1 0.785241 0.784536 0.724982
758 1 0.851475 0.745595 0.668105
840 1 0.897239 0.709965 0.742836
841 1 0.0140113 0.813905 0.726523
767 1 0.150545 0.85006 0.673186
775 1 0.351273 0.84993 0.672548
846 1 0.487689 0.891947 0.736366
783 1 0.549322 0.851105 0.675005
791 1 0.748871 0.851229 0.67195
799 1 0.95005 0.850187 0.666356
766 1 0.0495054 0.94988 0.674141
803 1 0.182703 0.984605 0.732006
774 1 0.250884 0.949218 0.674882
844 1 0.322235 0.920602 0.7288
805 1 0.385138 0.985687 0.734285
782 1 0.450277 0.950003 0.675885
807 1 0.581443 0.987838 0.717805
790 1 0.649617 0.950265 0.674807
809 1 0.802953 0.994163 0.732596
848 1 0.705816 0.909602 0.739648
798 1 0.85111 0.948254 0.673217
850 1 0.910698 0.902069 0.743761
48 1 0.257254 0.0552243 0.825192
87 1 0.484738 0.0559739 0.861332
140 1 0.628775 0.0234763 0.788629
191 1 0.738696 0.0663002 0.847714
131 1 0.853983 0.0579986 0.772962
161 1 0.0430333 0.102803 0.815462
16 1 0.0891993 0.15924 0.87458
13 1 0.149018 0.130192 0.802122
68 1 0.296844 0.192869 0.843927
55 1 0.35008 0.128101 0.798867
133 1 0.467233 0.133868 0.82845
176 1 0.591702 0.0999737 0.807407
71 1 0.677308 0.126897 0.815558
190 1 0.791953 0.117932 0.788408
197 1 0.842594 0.176235 0.845478
180 1 0.964362 0.140925 0.815283
49 1 0.0658649 0.28588 0.793613
10 1 0.225627 0.228718 0.814989
77 1 0.339426 0.270511 0.837274
69 1 0.453344 0.220273 0.815086
66 1 0.527136 0.255957 0.76539
80 1 0.531297 0.239805 0.86882
29 1 0.646043 0.266787 0.787294
40 1 0.703519 0.209144 0.822879
1 1 0.783479 0.290099 0.84898
61 1 0.831057 0.23946 0.779049
193 1 0.967521 0.226926 0.814223
63 1 0.00077402 0.340979 0.765544
194 1 0.0150481 0.408585 0.832028
3 1 0.146266 0.384899 0.789484
81 1 0.111655 0.333387 0.865185
86 1 0.264808 0.307823 0.807773
93 1 0.374707 0.386602 0.808619
816 1 0.496548 0.336623 0.761231
109 1 0.440664 0.333779 0.843364
106 1 0.59347 0.403716 0.842382
85 1 0.846943 0.390703 0.760515
74 1 0.939638 0.38053 0.880384
145 1 0.144482 0.463484 0.854651
99 1 0.227154 0.48046 0.81521
21 1 0.51646 0.413711 0.803022
164 1 0.71138 0.403192 0.824931
95 1 0.974149 0.488237 0.843102
18 1 0.0445331 0.538239 0.868763
123 1 0.113347 0.531736 0.800599
147 1 0.229865 0.567276 0.829876
142 1 0.318955 0.550791 0.836475
111 1 0.441293 0.530844 0.841088
141 1 0.623556 0.580884 0.814998
107 1 0.735523 0.535344 0.792167
67 1 0.893612 0.512826 0.815137
200 1 0.917247 0.594629 0.80014
153 1 0.0306079 0.651289 0.81884
121 1 0.1076 0.692717 0.826061
19 1 0.272617 0.682866 0.831762
167 1 0.370279 0.620307 0.868427
128 1 0.454994 0.661741 0.87546
183 1 0.573848 0.645999 0.841731
165 1 0.676959 0.694164 0.80362
117 1 0.704684 0.614091 0.838249
23 1 0.848643 0.648011 0.788778
157 1 0.0591626 0.76292 0.859084
88 1 0.297384 0.764781 0.80808
845 1 0.369941 0.791492 0.747972
836 1 0.486047 0.712306 0.79396
9 1 0.483372 0.790831 0.844174
171 1 0.606725 0.793895 0.844905
110 1 0.737384 0.727923 0.864544
59 1 0.881879 0.779119 0.805345
112 1 0.98191 0.723214 0.839941
57 1 0.0890255 0.856969 0.748055
79 1 0.151785 0.821197 0.810611
27 1 0.217911 0.874622 0.818209
184 1 0.429875 0.841371 0.790358
166 1 0.431195 0.900478 0.869778
98 1 0.563609 0.875788 0.839692
152 1 0.681083 0.842904 0.812663
154 1 0.762814 0.808202 0.82688
2 1 0.872509 0.888558 0.875948
65 1 0.971281 0.856164 0.809415
173 1 0.0091994 0.926525 0.850742
62 1 0.0641998 0.987937 0.81636
842 1 0.112662 0.939342 0.75241
11 1 0.171702 0.925708 0.879496
179 1 0.193858 0.997308 0.835609
189 1 0.29055 0.926167 0.827735
187 1 0.324123 1.00035 0.867939
132 1 0.438436 0.983627 0.823109
162 1 0.527924 0.953916 0.801312
58 1 0.583643 0.994762 0.871271
15 1 0.734652 0.979715 0.796975
92 1 0.94832 0.972363 0.791832
116 1 0.0111354 0.0895586 0.959244
156 1 0.120102 0.033059 0.879972
20 1 0.173295 0.0674963 0.972623
144 1 0.278178 0.0131686 0.963114
25 1 0.358777 0.0810675 0.88925
83 1 0.296697 0.0966036 0.9593
181 1 0.432866 0.0634796 0.942961
37 1 0.561076 0.0765569 0.898432
91 1 0.788023 0.0731712 0.933958
182 1 0.861992 0.061044 0.880046
14 1 0.976187 0.0327256 0.890317
51 1 0.0948772 0.0970906 0.945979
119 1 0.226455 0.107261 0.899619
129 1 0.263925 0.179414 0.94394
50 1 0.446819 0.147232 0.936096
150 1 0.527889 0.158079 0.905503
6 1 0.810007 0.159329 0.939388
38 1 0.932167 0.11343 0.910377
28 1 0.893068 0.177982 0.974062
47 1 0.0148919 0.272697 0.880567
168 1 0.0637423 0.221974 0.938448
64 1 0.135612 0.258363 0.97814
82 1 0.187726 0.218253 0.911405
56 1 0.403208 0.217914 0.898803
32 1 0.464885 0.272715 0.917239
26 1 0.638936 0.295433 0.888988
5 1 0.660077 0.212222 0.912728
36 1 0.693516 0.278015 0.969919
41 1 0.749422 0.225596 0.912484
113 1 0.829 0.310966 0.940672
198 1 0.905078 0.229098 0.88896
175 1 0.89824 0.267589 0.987592
94 1 0.183083 0.305525 0.914059
76 1 0.157715 0.363964 0.989706
136 1 0.274603 0.373528 0.880673
90 1 0.240756 0.351544 0.974808
103 1 0.359175 0.341745 0.894885
135 1 0.720053 0.3376 0.89608
60 1 0.775979 0.367752 0.978051
7 1 0.848102 0.387406 0.903315
159 1 0.912702 0.39497 0.982475
43 1 0.962942 0.319573 0.953218
102 1 0.0817154 0.407611 0.901017
44 1 0.0821216 0.488876 0.94275
199 1 0.164844 0.509597 0.944848
126 1 0.264049 0.455712 0.906317
155 1 0.210444 0.435377 0.988546
163 1 0.405166 0.453907 0.859727
124 1 0.472815 0.405705 0.894108
149 1 0.590242 0.482916 0.880998
97 1 0.526054 0.463536 0.948122
137 1 0.603536 0.419078 0.951268
75 1 0.664666 0.475668 0.930513
33 1 0.73873 0.475872 0.870301
151 1 0.793653 0.451769 0.949889
158 1 0.863276 0.503386 0.918787
118 1 0.946796 0.464573 0.940484
31 1 0.167174 0.593739 0.904286
96 1 0.348921 0.494999 0.919013
72 1 0.404029 0.563615 0.932748
4 1 0.492679 0.548237 0.93016
42 1 0.603747 0.590808 0.919019
46 1 0.732436 0.580376 0.936027
89 1 0.811914 0.569492 0.88769
143 1 0.860427 0.584606 0.968283
73 1 0.0169081 0.618037 0.907837
178 1 0.0593472 0.678831 0.965708
78 1 0.125574 0.624865 0.98876
125 1 0.21266 0.638814 0.973812
122 1 0.320132 0.680747 0.924301
169 1 0.523799 0.629721 0.928535
196 1 0.671116 0.645119 0.935617
170 1 0.817733 0.689078 0.87551
30 1 0.790858 0.639993 0.953191
120 1 0.927089 0.617499 0.90174
8 1 0.930083 0.703167 0.918345
127 1 0.00386373 0.743678 0.941636
52 1 0.121042 0.727856 0.919409
146 1 0.237959 0.71199 0.924104
45 1 0.241912 0.77456 0.994371
192 1 0.347267 0.75548 0.893994
17 1 0.432964 0.741446 0.906147
138 1 0.622027 0.708602 0.881065
39 1 0.740307 0.792864 0.932386
114 1 0.866122 0.756799 0.905928
108 1 0.0627343 0.895751 0.930436
160 1 0.114827 0.822398 0.908998
70 1 0.176673 0.836532 0.988069
24 1 0.237692 0.828525 0.909473
34 1 0.344614 0.881911 0.891525
54 1 0.321167 0.818278 0.962948
134 1 0.505056 0.859158 0.913886
101 1 0.659138 0.824189 0.921168
100 1 0.793149 0.862346 0.909611
195 1 0.925472 0.817804 0.888092
188 1 0.910917 0.876022 0.969469
12 1 0.117434 0.964269 0.946712
53 1 0.195847 0.984993 0.995859
105 1 0.225526 0.906637 0.959178
185 1 0.341953 0.950462 0.953967
130 1 0.42567 0.970149 0.935023
186 1 0.590054 0.919669 0.924374
148 1 0.670034 0.906098 0.893332
139 1 0.75389 0.938062 0.88524
22 1 0.792083 0.984586 0.962838
174 1 0.868243 0.974543 0.904639
177 1 0.861578 0.946888 1.00556
115 1 0.983179 0.928857 0.954402
35 1 0.930779 0.999438 0.972036
