ITEM: TIMESTEP
1300000
ITEM: NUMBER OF ATOMS
288
ITEM: BOX BOUNDS pp pp pp
0.0000000000000000e+00 1.6289999999999999e+01
0.0000000000000000e+00 1.6289999999999999e+01
0.0000000000000000e+00 2.1719999999999999e+01
ITEM: ATOMS id type xs ys zs
1 1 0 0 0
5 1 0.0833333 0.0833333 0.0625
9 1 0.333333 0 0
13 1 0.416667 0.0833333 0.0625
17 1 0.666667 0 0
21 1 0.75 0.0833333 0.0625
4 1 0.166667 0.166667 0
8 1 0.25 0.25 0.0625
12 1 0.5 0.166667 0
16 1 0.583333 0.25 0.0625
20 1 0.833333 0.166667 0
24 1 0.916667 0.25 0.0625
25 1 0 0.333333 0
29 1 0.0833333 0.416667 0.0625
33 1 0.333333 0.333333 0
37 1 0.416667 0.416667 0.0625
41 1 0.666667 0.333333 0
45 1 0.75 0.416667 0.0625
28 1 0.166667 0.5 0
32 1 0.25 0.583333 0.0625
36 1 0.5 0.5 0
40 1 0.583333 0.583333 0.0625
44 1 0.833333 0.5 0
48 1 0.916667 0.583333 0.0625
49 1 0 0.666667 0
53 1 0.0833333 0.75 0.0625
57 1 0.333333 0.666667 0
61 1 0.416667 0.75 0.0625
65 1 0.666667 0.666667 0
69 1 0.75 0.75 0.0625
52 1 0.166667 0.833333 0
56 1 0.25 0.916667 0.0625
60 1 0.5 0.833333 0
64 1 0.583333 0.916667 0.0625
68 1 0.833333 0.833333 0
72 1 0.916667 0.916667 0.0625
3 1 0.166667 0 0.125
7 1 0.25 0.0833333 0.1875
81 1 0.331813 -0.00253017 0.250497
11 1 0.5 0 0.125
15 1 0.583333 0.0833333 0.1875
89 1 0.672636 0.00483016 0.248615
19 1 0.833333 0 0.125
23 1 0.916667 0.0833333 0.1875
2 1 0 0.166667 0.125
6 1 0.0833333 0.25 0.1875
76 1 0.169475 0.167623 0.24909
101 1 0.334593 0.33449 0.250308
10 1 0.333333 0.166667 0.125
14 1 0.416667 0.25 0.1875
96 1 0.666141 0.331379 0.249286
18 1 0.666667 0.166667 0.125
22 1 0.75 0.25 0.1875
27 1 0.166667 0.333333 0.125
31 1 0.25 0.416667 0.1875
108 1 0.499224 0.496853 0.245042
35 1 0.5 0.333333 0.125
39 1 0.583333 0.416667 0.1875
43 1 0.833333 0.333333 0.125
47 1 0.916667 0.416667 0.1875
26 1 0 0.5 0.125
30 1 0.0833333 0.583333 0.1875
34 1 0.333333 0.5 0.125
38 1 0.416667 0.583333 0.1875
42 1 0.666667 0.5 0.125
46 1 0.75 0.583333 0.1875
83 1 0.966909 0.634391 0.239964
116 1 0.866267 0.52776 0.244256
51 1 0.166667 0.666667 0.125
55 1 0.25 0.75 0.1875
137 1 0.336351 0.663785 0.254106
132 1 0.500313 0.829604 0.24769
59 1 0.5 0.666667 0.125
63 1 0.583333 0.75 0.1875
67 1 0.833333 0.666667 0.125
71 1 0.916667 0.75 0.1875
50 1 0 0.833333 0.125
54 1 0.0833333 0.916667 0.1875
58 1 0.333333 0.833333 0.125
62 1 0.416667 0.916667 0.1875
66 1 0.666667 0.833333 0.125
70 1 0.75 0.916667 0.1875
140 1 0.868662 0.864309 0.244102
127 1 0.0742799 0.0763831 0.289149
130 1 0.414482 0.0702476 0.317952
93 1 0.493197 0.161541 0.250174
179 1 0.757502 0.0788137 0.317829
125 1 0.836065 0.165202 0.250321
161 1 0.984935 0.130862 0.36188
77 1 0.253699 0.24984 0.314753
84 1 0.5879 0.243047 0.307671
136 1 0.671518 0.169433 0.37407
97 1 0.998672 0.333184 0.253762
106 1 0.925905 0.241836 0.31376
92 1 0.0863626 0.417087 0.32453
86 1 0.416821 0.416387 0.311112
103 1 0.518393 0.346679 0.361702
88 1 0.611178 0.463041 0.374899
110 1 0.727175 0.402347 0.332431
102 1 0.165992 0.504484 0.25494
172 1 0.254686 0.575892 0.314233
138 1 0.580121 0.580809 0.310449
141 1 0.664437 0.667062 0.249971
122 1 0.809321 0.514888 0.345363
121 1 0.0769439 0.804975 0.336885
107 1 0.423442 0.741257 0.313838
142 1 0.689586 0.783684 0.318479
216 1 0.977459 0.703071 0.337079
194 1 0.135258 0.985887 0.355576
143 1 -0.00542469 0.923574 0.351858
124 1 0.165951 0.828319 0.248561
128 1 0.251191 0.910031 0.310215
129 1 0.362004 0.851367 0.370366
133 1 0.608299 0.89655 0.301063
211 1 0.820432 0.840176 0.344282
73 1 0.975754 0.975584 0.248235
79 1 0.170126 0.0277635 0.453732
205 1 0.267179 0.132732 0.471205
78 1 0.511762 0.137618 0.499855
249 1 0.603221 0.0739428 0.431418
99 1 0.712974 0.0937107 0.499058
190 1 0.858332 0.118171 0.486481
95 1 0.92749 0.0179461 0.421706
241 1 0.0484333 0.167607 0.453935
120 1 0.167696 0.24981 0.462474
171 1 0.345764 0.169857 0.375989
109 1 0.447651 0.252222 0.436763
114 1 0.728025 0.298918 0.408094
144 1 0.870742 0.304187 0.401424
163 1 0.934186 0.239486 0.487257
203 1 0.0283259 0.477008 0.415848
210 1 0.180215 0.336663 0.380536
74 1 0.256205 0.419631 0.45299
105 1 0.341454 0.499181 0.381095
148 1 0.626304 0.501637 0.477254
189 1 0.890829 0.443806 0.418058
104 1 0.041869 0.621587 0.405081
134 1 0.1841 0.645743 0.398895
123 1 0.217048 0.56199 0.485518
113 1 0.417413 0.576449 0.442996
115 1 0.503755 0.657933 0.378756
98 1 0.748091 0.641383 0.405588
149 1 0.157327 0.779197 0.424062
233 1 0.307347 0.790263 0.460712
117 1 0.626735 0.727192 0.404495
159 1 0.614448 0.831764 0.480952
184 1 0.864533 0.730259 0.4052
224 1 0.169212 0.895268 0.496668
168 1 0.444434 0.967691 0.387551
90 1 0.581974 0.935657 0.400125
126 1 0.794499 0.964646 0.394066
91 1 0.74193 0.903818 0.493802
258 1 0.068801 0.0615689 0.526232
135 1 0.330309 0.0296766 0.537342
160 1 0.739163 0.000653495 0.579189
145 1 0.876471 0.0456652 0.582259
80 1 0.306191 0.226817 0.550817
188 1 0.440581 0.200487 0.582311
196 1 0.512481 0.311037 0.619057
228 1 0.626282 0.177836 0.55685
175 1 0.646968 0.307934 0.58273
221 1 0.975449 0.322871 0.571202
75 1 0.0460177 0.45232 0.5359
157 1 0.162986 0.36616 0.533991
181 1 0.360346 0.34062 0.501698
213 1 0.427034 0.418111 0.580695
112 1 0.701316 0.381966 0.498012
260 1 0.829112 0.436536 0.519319
151 1 0.847772 0.33918 0.603348
87 1 0.112821 0.591908 0.554712
212 1 0.239 0.609183 0.620839
165 1 0.330117 0.654264 0.503096
85 1 0.499314 0.515958 0.521371
225 1 0.380904 0.663698 0.606977
234 1 0.522473 0.633123 0.58471
100 1 0.713837 0.608981 0.50522
264 1 0.81634 0.561455 0.573279
192 1 0.0611485 0.711414 0.501754
111 1 0.411837 0.80999 0.60651
119 1 0.634759 0.714228 0.554335
285 1 0.899584 0.677098 0.607379
176 1 0.905424 0.727674 0.506558
131 1 0.0559636 0.847837 0.553277
272 1 0.302479 0.887796 0.550704
207 1 0.459527 0.998901 0.492605
265 1 0.518473 0.887205 0.554609
185 1 0.8617 0.853886 0.546779
206 1 0.96536 0.957963 0.522735
243 1 0.057658 0.116856 0.627602
214 1 0.177306 0.110984 0.688551
282 1 0.371966 0.092967 0.635905
197 1 0.348775 0.00896641 0.730833
220 1 0.518347 0.0584893 0.676578
156 1 0.653836 0.0962168 0.640561
201 1 0.948231 0.0443787 0.675549
281 1 0.870527 0.119753 0.748454
164 1 0.0339106 0.249186 0.654288
177 1 0.161075 0.313082 0.637889
229 1 0.277697 0.213383 0.65834
186 1 0.491425 0.280169 0.720539
251 1 0.348283 0.303725 0.740157
245 1 0.745657 0.174827 0.706203
167 1 0.731669 0.312917 0.668841
235 1 0.0233282 0.474979 0.644495
152 1 0.126902 0.423024 0.70673
257 1 0.342438 0.430724 0.676223
284 1 0.671403 0.451389 0.69694
237 1 0.916647 0.410736 0.687472
118 1 0.0270107 0.616639 0.642663
247 1 0.236456 0.517969 0.706715
256 1 0.418554 0.562065 0.690493
200 1 0.560553 0.544192 0.664889
183 1 0.615088 0.655769 0.727473
268 1 0.81089 0.505277 0.671427
169 1 0.833807 0.611966 0.74074
162 1 0.0776796 0.729749 0.706891
182 1 0.224047 0.719063 0.689932
94 1 0.338991 0.664567 0.747816
276 1 0.670942 0.747757 0.657606
170 1 0.810288 0.740321 0.694999
208 1 0.0908441 0.856368 0.656152
173 1 0.240313 0.859205 0.652871
153 1 0.210278 0.976972 0.718315
154 1 0.383139 0.867322 0.702779
193 1 0.61011 0.878046 0.639584
195 1 0.515171 0.920513 0.7119
166 1 0.726153 0.944276 0.680161
150 1 0.846893 0.864009 0.654214
266 1 0.973305 0.904857 0.704996
202 1 0.120478 0.149672 0.789175
278 1 0.120561 0.010673 0.80683
227 1 0.336581 0.167906 0.874637
244 1 0.417443 0.0797421 0.814475
236 1 0.523822 0.151573 0.764357
283 1 0.664705 0.132913 0.791332
217 1 0.690246 -0.00697687 0.779187
147 1 0.891392 0.0273575 0.838169
254 1 0.166678 0.32959 0.872209
280 1 0.242028 0.239823 0.807893
240 1 0.986768 0.209007 0.765796
246 1 0.0722737 0.408902 0.810568
226 1 0.396924 0.384351 0.826978
222 1 0.481978 0.494634 0.784487
82 1 0.571046 0.380992 0.76569
261 1 0.951311 0.348804 0.784696
187 1 0.255269 0.574409 0.8036
209 1 0.169975 0.656563 0.87035
174 1 0.514321 0.588135 0.866638
180 1 0.702347 0.556999 0.778284
191 1 0.933903 0.612475 0.816076
155 1 0.0500522 0.707945 0.815985
253 1 0.011346 0.829844 0.872165
273 1 0.396427 0.780734 0.790223
139 1 0.521178 0.704779 0.80126
215 1 0.622647 0.791171 0.840429
288 1 0.767148 0.777997 0.805957
275 1 0.836695 0.678537 0.872256
204 1 0.497843 0.9987 0.874843
252 1 0.57362 0.915827 0.811128
239 1 0.779917 0.921851 0.844991
269 1 0.997041 0.940432 0.808268
223 1 0.256847 0.0853362 0.940168
231 1 0.584714 0.0808356 0.935436
198 1 0.921194 0.0936553 0.932222
218 1 0.0879779 0.251266 0.938274
230 1 0.424106 0.253492 0.935393
158 1 0.525184 0.321545 0.870423
255 1 0.630241 0.207469 0.88846
238 1 0.754307 0.255624 0.941483
263 1 0.873315 0.313804 0.879643
199 1 0.972627 0.206323 0.881158
267 1 0.321069 0.494384 0.874477
248 1 0.244404 0.4146 0.940685
232 1 0.586782 0.418614 0.937396
259 1 0.918514 0.421201 0.937846
242 1 0.0015512 0.504148 0.877726
274 1 0.0887777 0.58583 0.940855
250 1 0.408363 0.579237 0.937846
277 1 0.648271 0.530852 0.8873
262 1 0.758755 0.594642 0.94367
271 1 0.240757 0.749296 0.934884
279 1 0.622723 0.789781 0.952505
287 1 0.921394 0.750229 0.937241
270 1 0.0859327 0.922823 0.938677
178 1 0.319377 0.848803 0.872754
219 1 0.210519 0.966058 0.888435
146 1 0.420428 0.911745 0.936035
286 1 0.7255 0.88945 0.946483
