ITEM: TIMESTEP
130009
ITEM: NUMBER OF ATOMS
777
ITEM: BOX BOUNDS pp pp pp
0.0000000000000000e+00 2.1840000000000000e+01
0.0000000000000000e+00 2.1840000000000000e+01
0.0000000000000000e+00 3.2759999999999998e+01
ITEM: ATOMS id type xs ys zs
1 1 0.000805651 -0.00106945 -0.000410422
4 1 0.124977 0.124738 0.000471387
5 1 0.0622457 0.0619897 0.041694
9 1 0.250379 -0.000712843 0.000377825
12 1 0.375665 0.125521 -0.000188872
13 1 0.31292 0.0627804 0.0414846
17 1 0.499966 -0.000296639 -0.000636899
21 1 0.562003 0.0618648 0.0416986
20 1 0.625775 0.124718 0.00102783
25 1 0.750352 -0.000516928 0.000216847
28 1 0.875746 0.124654 0.000448795
29 1 0.812505 0.0624039 0.0417331
33 1 0.000123587 0.24976 0.000619427
8 1 0.187852 0.187628 0.0417125
41 1 0.250592 0.251103 0.000566075
16 1 0.437819 0.188043 0.0415187
49 1 0.500255 0.251867 0.000377586
24 1 0.687963 0.187653 0.0423615
57 1 0.750372 0.250276 0.000799194
32 1 0.937652 0.187435 0.0420424
36 1 0.124676 0.375434 0.000993602
37 1 0.0623195 0.312257 0.0421507
44 1 0.375746 0.376525 0.000132818
45 1 0.31328 0.31339 0.0417599
53 1 0.56274 0.313024 0.0422405
52 1 0.625016 0.375457 0.000635252
60 1 0.87495 0.374896 0.000524872
61 1 0.812628 0.31277 0.0422416
65 1 0.000327398 0.500046 0.00041088
40 1 0.187815 0.438052 0.0419409
73 1 0.250091 0.500766 4.60623e-05
48 1 0.437737 0.437965 0.0422559
81 1 0.500062 0.500836 0.000846001
56 1 0.687427 0.437381 0.0423381
89 1 0.749665 0.500018 0.000962394
64 1 0.937476 0.437657 0.041861
69 1 0.0631078 0.563007 0.0414455
77 1 0.312419 0.562811 0.0419911
85 1 0.562539 0.563034 0.0423168
93 1 0.812661 0.562636 0.0420114
68 1 0.125362 0.62505 -0.000975483
97 1 0.000671203 0.749327 0.000802148
72 1 0.187506 0.687035 0.041333
105 1 0.250645 0.748601 -0.000604996
76 1 0.374577 0.625235 8.00804e-05
80 1 0.437147 0.687437 0.0419359
113 1 0.499581 0.749696 0.000246563
84 1 0.623754 0.62565 0.000106999
88 1 0.687159 0.687573 0.0416506
121 1 0.749164 0.750069 -4.08206e-05
92 1 0.875446 0.624994 0.000618715
96 1 0.937653 0.687448 0.0422165
100 1 0.125766 0.873813 0.000399193
101 1 0.0627565 0.81242 0.0421232
108 1 0.374489 0.874987 -0.000456709
109 1 0.312393 0.81213 0.0413384
117 1 0.562182 0.812102 0.0420959
116 1 0.624946 0.874389 0.000667107
124 1 0.874903 0.874626 0.00022308
125 1 0.811989 0.812262 0.0416234
104 1 0.187541 0.937052 0.0418791
112 1 0.437296 0.937587 0.041199
120 1 0.687546 0.937418 0.041931
128 1 0.937621 0.937495 0.0415368
2 1 5.64201e-05 0.124798 0.0834118
3 1 0.125022 -0.000150931 0.0833533
7 1 0.187513 0.0624853 0.124967
10 1 0.250172 0.12493 0.0833137
11 1 0.375124 4.50814e-05 0.0832789
15 1 0.437503 0.0625282 0.12502
18 1 0.499865 0.125021 0.0832581
19 1 0.624886 -8.54229e-05 0.0834496
23 1 0.687471 0.0624699 0.125026
26 1 0.750249 0.124837 0.0835619
27 1 0.875073 -1.12061e-05 0.0832919
31 1 0.937475 0.0624667 0.125027
6 1 0.0625087 0.187435 0.125019
35 1 0.125109 0.249868 0.0834545
14 1 0.312524 0.187516 0.124988
43 1 0.37505 0.250074 0.0833259
22 1 0.562453 0.18745 0.124993
51 1 0.624979 0.250067 0.0835351
30 1 0.812572 0.187507 0.125064
59 1 0.875084 0.249992 0.0834924
34 1 -0.000155542 0.375045 0.0834517
39 1 0.187542 0.312517 0.124996
42 1 0.250115 0.375104 0.0833949
47 1 0.437479 0.312464 0.125054
50 1 0.49997 0.37509 0.0836181
55 1 0.687483 0.312482 0.125097
58 1 0.75 0.375003 0.0836579
63 1 0.937492 0.312511 0.125065
38 1 0.0624995 0.437536 0.124983
67 1 0.125016 0.500245 0.0833987
46 1 0.312495 0.437512 0.125058
75 1 0.374861 0.500152 0.0835207
54 1 0.562507 0.437529 0.12509
83 1 0.624968 0.500097 0.0835704
62 1 0.812531 0.437541 0.125068
91 1 0.875017 0.500037 0.0834718
71 1 0.187476 0.56252 0.125082
79 1 0.437457 0.562505 0.125076
87 1 0.687546 0.562549 0.125037
95 1 0.937553 0.562491 0.125029
66 1 0.000249373 0.624868 0.0834353
70 1 0.0625601 0.687496 0.125029
99 1 0.125301 0.749727 0.0833526
74 1 0.249802 0.625082 0.0834772
78 1 0.312463 0.687543 0.125029
107 1 0.374885 0.750151 0.08341
82 1 0.499782 0.625208 0.0836051
86 1 0.562494 0.68751 0.125087
90 1 0.749909 0.625144 0.083337
115 1 0.625044 0.749898 0.0835373
94 1 0.812459 0.687502 0.125036
123 1 0.874802 0.750088 0.0834083
98 1 -1.42547e-05 0.875109 0.083387
103 1 0.187531 0.812428 0.125033
106 1 0.250141 0.874707 0.0833586
111 1 0.437472 0.812568 0.125019
114 1 0.499717 0.875209 0.0832913
119 1 0.687525 0.812503 0.125044
122 1 0.750057 0.874949 0.0834462
127 1 0.937472 0.812541 0.124997
102 1 0.0624961 0.937516 0.12504
110 1 0.312529 0.937497 0.124965
118 1 0.562424 0.937458 0.12503
126 1 0.812557 0.937519 0.125003
129 1 -3.92135e-06 1.4458e-06 0.166676
132 1 0.125013 0.124986 0.166667
133 1 0.0625008 0.0624998 0.208334
137 1 0.250003 -5.57451e-06 0.16666
140 1 0.374998 0.125008 0.166671
141 1 0.312499 0.0625001 0.208333
145 1 0.499995 7.34763e-06 0.166675
149 1 0.5625 0.0625 0.208335
148 1 0.624993 0.124999 0.166666
153 1 0.750003 -6.90143e-06 0.16667
156 1 0.875013 0.124993 0.166681
157 1 0.812499 0.0625001 0.208335
161 1 8.70063e-06 0.249993 0.166669
136 1 0.187501 0.1875 0.208332
169 1 0.250005 0.249998 0.166666
144 1 0.4375 0.187499 0.208336
177 1 0.5 0.249985 0.166673
152 1 0.687499 0.187498 0.208334
185 1 0.750007 0.249989 0.166679
160 1 0.937503 0.1875 0.208335
164 1 0.124999 0.375002 0.16666
165 1 0.0625012 0.3125 0.208333
172 1 0.374996 0.374996 0.166676
173 1 0.312499 0.312499 0.208335
181 1 0.562499 0.312497 0.208335
180 1 0.624998 0.375001 0.166687
188 1 0.875 0.375005 0.166683
189 1 0.8125 0.3125 0.208336
193 1 6.25335e-06 0.499994 0.166676
168 1 0.187498 0.437498 0.208335
201 1 0.249995 0.499998 0.16668
176 1 0.437499 0.437499 0.208335
209 1 0.499993 0.500007 0.166682
184 1 0.687502 0.437501 0.208335
217 1 0.750004 0.500011 0.166678
192 1 0.937502 0.4375 0.208336
197 1 0.0624987 0.562499 0.208336
205 1 0.312498 0.5625 0.208336
213 1 0.562501 0.5625 0.208335
221 1 0.812502 0.562501 0.208335
196 1 0.124995 0.625002 0.166689
225 1 -2.87568e-07 0.750006 0.166658
200 1 0.1875 0.6875 0.208337
233 1 0.250002 0.749999 0.16669
204 1 0.374983 0.625012 0.166679
208 1 0.437499 0.687503 0.208334
241 1 0.499992 0.750023 0.166673
212 1 0.625005 0.624997 0.16668
216 1 0.6875 0.6875 0.208336
249 1 0.75 0.75 0.166682
220 1 0.875005 0.624999 0.166667
224 1 0.937501 0.687502 0.208333
228 1 0.125004 0.874991 0.166665
229 1 0.0624991 0.8125 0.208334
236 1 0.374994 0.875014 0.166677
237 1 0.312501 0.812502 0.208335
245 1 0.562501 0.812501 0.208336
244 1 0.624993 0.874997 0.166669
252 1 0.875003 0.875008 0.166674
253 1 0.812501 0.812501 0.208334
232 1 0.1875 0.937499 0.208333
240 1 0.437499 0.937502 0.208335
248 1 0.687499 0.937499 0.208334
256 1 0.937501 0.9375 0.208335
130 1 1.81782e-07 0.124999 0.249999
131 1 0.124998 -9.87117e-07 0.25
135 1 0.187485 0.0625091 0.291663
138 1 0.249998 0.125 0.249999
139 1 0.375 9.10395e-07 0.25
143 1 0.437492 0.0625015 0.291673
146 1 0.5 0.124998 0.250001
147 1 0.625 7.94654e-07 0.250002
151 1 0.687503 0.0625098 0.291672
154 1 0.750001 0.125001 0.25
155 1 0.875002 1.08357e-06 0.249999
159 1 0.937505 0.0624968 0.291667
134 1 0.0624882 0.187502 0.291666
163 1 0.124998 0.249999 0.25
142 1 0.312491 0.187499 0.291661
171 1 0.374999 0.25 0.25
150 1 0.562503 0.187497 0.291667
179 1 0.625001 0.249999 0.25
158 1 0.812506 0.187497 0.291673
187 1 0.875 0.250001 0.250001
162 1 -3.94827e-07 0.374999 0.250002
167 1 0.187495 0.312494 0.291663
170 1 0.25 0.375 0.250001
175 1 0.437502 0.312502 0.291658
178 1 0.5 0.374999 0.249997
183 1 0.687511 0.31249 0.291664
186 1 0.750001 0.375 0.250001
191 1 0.937502 0.312491 0.291677
166 1 0.0625017 0.437495 0.291676
195 1 0.125 0.499999 0.250002
174 1 0.312506 0.437502 0.291661
203 1 0.374999 0.500001 0.249998
182 1 0.562505 0.437492 0.291649
211 1 0.625002 0.5 0.249999
190 1 0.812506 0.437493 0.291676
219 1 0.875 0.499999 0.250001
199 1 0.187495 0.562504 0.291672
207 1 0.4375 0.562498 0.291655
215 1 0.687507 0.5625 0.291666
223 1 0.937505 0.562497 0.291664
194 1 5.99984e-07 0.625 0.25
198 1 0.0625002 0.687501 0.291667
227 1 0.124999 0.75 0.25
202 1 0.249999 0.625001 0.250001
206 1 0.312489 0.687512 0.29167
235 1 0.374999 0.750002 0.25
210 1 0.5 0.624999 0.249998
214 1 0.562507 0.687484 0.291657
218 1 0.750001 0.625001 0.25
243 1 0.625 0.749998 0.249999
222 1 0.81251 0.687496 0.291666
251 1 0.875001 0.750001 0.25
226 1 3.92396e-07 0.875 0.25
231 1 0.187494 0.812503 0.291669
234 1 0.25 0.875 0.250001
239 1 0.437502 0.812495 0.291669
242 1 0.499999 0.875 0.25
247 1 0.687504 0.812494 0.291655
250 1 0.750001 0.875001 0.25
255 1 0.937505 0.812499 0.291669
230 1 0.062493 0.937502 0.291674
238 1 0.312495 0.937508 0.291666
246 1 0.562491 0.937499 0.291669
254 1 0.812516 0.9375 0.291662
257 1 -2.5445e-05 -1.10052e-06 0.333376
260 1 0.124932 0.124982 0.333336
261 1 0.0623792 0.0625956 0.375126
265 1 0.249974 2.97578e-05 0.333312
268 1 0.374952 0.125007 0.333337
269 1 0.312287 0.0626038 0.37502
273 1 0.499967 -1.81982e-05 0.333346
277 1 0.562459 0.0625361 0.374924
276 1 0.625028 0.125043 0.333358
281 1 0.750065 2.85366e-05 0.333309
284 1 0.875071 0.125023 0.333349
285 1 0.812651 0.06248 0.375006
289 1 -3.48161e-05 0.249943 0.333384
264 1 0.187313 0.187492 0.374998
297 1 0.249954 0.249964 0.333327
272 1 0.437355 0.187624 0.374934
305 1 0.499986 0.249992 0.333309
280 1 0.687523 0.187554 0.375145
313 1 0.749993 0.249972 0.333352
288 1 0.937576 0.187351 0.375248
292 1 0.124971 0.374922 0.33336
293 1 0.0625356 0.312277 0.375145
300 1 0.375041 0.375033 0.333316
301 1 0.312541 0.312464 0.374838
309 1 0.562524 0.312521 0.374883
308 1 0.625003 0.374985 0.333277
316 1 0.874999 0.37496 0.333381
317 1 0.812556 0.3123 0.375108
321 1 3.7689e-07 0.500012 0.333348
296 1 0.187655 0.437322 0.374954
329 1 0.250012 0.499987 0.333318
304 1 0.437687 0.437488 0.374928
337 1 0.500001 0.499965 0.333255
312 1 0.687451 0.437456 0.374886
345 1 0.750035 0.500027 0.333349
320 1 0.937587 0.437444 0.375075
325 1 0.0624579 0.56255 0.375049
333 1 0.312576 0.562497 0.374902
341 1 0.562465 0.562254 0.37489
349 1 0.812717 0.562442 0.37503
324 1 0.124991 0.625016 0.333352
353 1 -4.3541e-06 0.749981 0.333348
328 1 0.187387 0.687534 0.375108
361 1 0.249946 0.750004 0.33336
332 1 0.375016 0.625012 0.333286
336 1 0.437618 0.687284 0.374965
369 1 0.499996 0.74992 0.333299
340 1 0.624978 0.624957 0.33333
344 1 0.687568 0.687475 0.374854
377 1 0.750032 0.750022 0.333302
348 1 0.875051 0.625003 0.333333
352 1 0.937624 0.687382 0.375069
356 1 0.124987 0.874988 0.333357
357 1 0.0625038 0.812432 0.375092
364 1 0.37499 0.875012 0.333308
365 1 0.312486 0.812559 0.374948
373 1 0.562563 0.812252 0.374884
372 1 0.624967 0.874934 0.333289
380 1 0.875047 0.875032 0.33334
381 1 0.812566 0.812515 0.374937
360 1 0.187369 0.937702 0.375002
368 1 0.437376 0.93748 0.375006
376 1 0.687596 0.937338 0.374747
384 1 0.937539 0.937435 0.375155
258 1 -5.89593e-05 0.12474 0.417334
259 1 0.124946 0.000201734 0.416911
263 1 0.187249 0.0626315 0.459027
266 1 0.249489 0.124899 0.416773
267 1 0.374755 1.55354e-05 0.416627
271 1 0.437389 0.0627063 0.45809
274 1 0.499786 0.125059 0.416372
275 1 0.624961 -0.000369678 0.416121
279 1 0.687182 0.061737 0.457819
282 1 0.75007 0.124787 0.416746
283 1 0.874765 -0.000188868 0.41688
287 1 0.937324 0.0617237 0.459036
262 1 0.0629854 0.186444 0.459556
291 1 0.124745 0.249388 0.417095
270 1 0.312173 0.187626 0.458166
299 1 0.374905 0.250199 0.416574
278 1 0.561685 0.18792 0.457822
307 1 0.624953 0.250422 0.41672
286 1 0.81195 0.187022 0.458936
315 1 0.874705 0.249462 0.417086
290 1 -4.81153e-05 0.374678 0.416883
295 1 0.188554 0.311321 0.458229
298 1 0.250279 0.374705 0.416591
303 1 0.437494 0.312726 0.458042
306 1 0.50022 0.375 0.416583
311 1 0.68704 0.313562 0.458394
314 1 0.749945 0.375075 0.416499
319 1 0.937446 0.311936 0.458812
294 1 0.0633027 0.436818 0.458394
323 1 0.125082 0.499816 0.416484
302 1 0.313722 0.436903 0.457935
331 1 0.375385 0.500153 0.416441
310 1 0.56245 0.437169 0.458642
339 1 0.624553 0.49945 0.416502
318 1 0.812548 0.437186 0.458181
347 1 0.87529 0.500012 0.416867
327 1 0.187632 0.562295 0.458178
335 1 0.437575 0.561828 0.458634
343 1 0.687563 0.562014 0.457511
351 1 0.938123 0.562147 0.458723
322 1 0.000131953 0.624968 0.416987
326 1 0.0623185 0.686987 0.459184
355 1 0.12452 0.749594 0.417011
330 1 0.25016 0.62497 0.416559
334 1 0.313061 0.687034 0.458132
363 1 0.374924 0.749777 0.416379
338 1 0.499722 0.624168 0.416595
342 1 0.562874 0.686285 0.457767
346 1 0.750171 0.625166 0.416422
371 1 0.624996 0.749637 0.416484
350 1 0.81245 0.688011 0.458032
379 1 0.875213 0.750147 0.416534
354 1 0.000305832 0.875093 0.416965
359 1 0.187664 0.812618 0.457975
362 1 0.250151 0.875335 0.416517
367 1 0.43755 0.811736 0.457924
370 1 0.499623 0.874331 0.41629
375 1 0.687226 0.812331 0.458025
378 1 0.749658 0.874727 0.416384
383 1 0.937927 0.812038 0.458529
358 1 0.0625188 0.937973 0.458891
366 1 0.312587 0.93754 0.458522
374 1 0.562505 0.93669 0.457409
382 1 0.81106 0.937635 0.458066
388 1 0.125478 0.124119 0.502032
393 1 0.250641 0.000273222 0.500365
404 1 0.624699 0.125306 0.498482
412 1 0.871589 0.121431 0.500639
396 1 0.374644 0.125145 0.500005
417 1 0.99875 0.248049 0.500883
425 1 0.250487 0.249369 0.500814
433 1 0.499022 0.249941 0.499791
441 1 0.749503 0.251035 0.499847
444 1 0.874663 0.374815 0.500007
449 1 0.000888701 0.499285 0.500342
420 1 0.127149 0.374176 0.49932
457 1 0.25119 0.499724 0.499191
428 1 0.375777 0.37482 0.50026
465 1 0.499389 0.498839 0.500485
436 1 0.625145 0.375739 0.500738
473 1 0.749517 0.499741 0.499398
452 1 0.12479 0.62396 0.500532
468 1 0.625295 0.624057 0.499411
477 1 0.811058 0.563679 0.540509
460 1 0.375505 0.624827 0.499965
497 1 0.4993 0.747911 0.499052
476 1 0.875012 0.625383 0.49961
481 1 0.999579 0.749212 0.50089
489 1 0.2503 0.749784 0.499389
500 1 0.62329 0.87344 0.49952
505 1 0.750144 0.750682 0.499605
385 1 0.000698258 1.00065 0.501138
484 1 0.125718 0.875214 0.500068
492 1 0.37615 0.874854 0.499638
401 1 0.500501 0.999524 0.499122
409 1 0.746046 0.997042 0.500025
508 1 0.874778 0.875941 0.499062
389 1 0.0639471 0.0607157 0.544117
397 1 0.314342 0.0610441 0.542387
394 1 0.252391 0.122525 0.58513
402 1 0.496885 0.123423 0.583298
775 2 0.489451 0.0932028 0.543476
405 1 0.564438 0.0616869 0.540177
403 1 0.624374 0.00125185 0.584029
413 1 0.806135 0.0607046 0.542068
386 1 0.998733 0.122513 0.584758
392 1 0.189781 0.185573 0.543446
419 1 0.125981 0.247675 0.584673
427 1 0.374111 0.25008 0.585254
400 1 0.435164 0.189651 0.541991
410 1 0.744345 0.125273 0.582694
408 1 0.684863 0.189067 0.540282
443 1 0.87222 0.246475 0.582593
416 1 0.935883 0.183422 0.541763
421 1 0.0632878 0.310116 0.542713
429 1 0.313793 0.312013 0.542002
426 1 0.252262 0.374982 0.583602
435 1 0.623408 0.250603 0.582804
437 1 0.561095 0.312948 0.541369
434 1 0.498554 0.373478 0.584412
445 1 0.812149 0.312798 0.541826
418 1 0.995797 0.373723 0.584237
777 2 0.0644924 0.375371 0.548114
424 1 0.190154 0.436231 0.541142
451 1 0.12701 0.497592 0.583445
432 1 0.437152 0.436972 0.542811
440 1 0.687971 0.438234 0.542169
442 1 0.751209 0.376578 0.583669
448 1 0.936495 0.43778 0.54141
453 1 0.0636066 0.560577 0.542816
461 1 0.311894 0.563413 0.541002
459 1 0.375016 0.502192 0.583068
467 1 0.625089 0.501137 0.583062
469 1 0.562423 0.562242 0.54118
475 1 0.873777 0.501424 0.581907
450 1 1.00005 0.623136 0.584578
458 1 0.248652 0.626024 0.582216
456 1 0.186343 0.688739 0.540986
464 1 0.438719 0.685855 0.541877
491 1 0.37638 0.748462 0.583426
466 1 0.502422 0.62578 0.583716
499 1 0.624961 0.750896 0.582338
472 1 0.686961 0.688208 0.54057
474 1 0.749494 0.626793 0.582173
480 1 0.937585 0.686113 0.542594
483 1 0.124562 0.751116 0.583028
485 1 0.0617188 0.813646 0.54144
490 1 0.254115 0.874084 0.582663
493 1 0.315057 0.810594 0.540785
498 1 0.501268 0.875097 0.582883
501 1 0.560966 0.810827 0.54058
507 1 0.875096 0.751359 0.582364
509 1 0.812244 0.814028 0.540969
387 1 0.127826 0.997837 0.584821
488 1 0.189775 0.936401 0.542006
395 1 0.376506 0.998501 0.584321
496 1 0.438603 0.937236 0.541496
504 1 0.683846 0.936012 0.542279
506 1 0.749317 0.875917 0.582926
411 1 0.870452 1.00002 0.583708
482 1 0.998934 0.877471 0.581776
512 1 0.934801 0.939881 0.541382
516 1 0.12534 0.123682 0.667134
391 1 0.189562 0.0605828 0.626933
521 1 0.253813 0.000348709 0.669084
524 1 0.376412 0.125417 0.669341
399 1 0.436866 0.0620384 0.627027
407 1 0.685308 0.0636764 0.62673
540 1 0.870412 0.122646 0.666895
415 1 0.934168 0.060698 0.625686
390 1 0.0613026 0.186082 0.626094
553 1 0.250113 0.249133 0.667436
398 1 0.313366 0.186128 0.627034
561 1 0.499947 0.25055 0.667799
406 1 0.561217 0.187413 0.624794
532 1 0.624512 0.127404 0.668461
414 1 0.808588 0.185224 0.624377
545 1 0.996436 0.248003 0.66685
423 1 0.18928 0.311785 0.624828
431 1 0.435685 0.312945 0.627157
439 1 0.687914 0.312598 0.623771
569 1 0.74932 0.25004 0.666316
564 1 0.625626 0.375575 0.66506
447 1 0.933576 0.309728 0.624693
422 1 0.0615442 0.436204 0.624159
548 1 0.124442 0.374013 0.665326
556 1 0.373721 0.377934 0.667442
430 1 0.312089 0.440592 0.625105
438 1 0.562182 0.437915 0.623956
572 1 0.874449 0.375657 0.666164
446 1 0.812844 0.440313 0.624952
577 1 0.000251757 0.499741 0.666367
585 1 0.248839 0.503551 0.665964
455 1 0.185853 0.564884 0.624561
463 1 0.437824 0.564778 0.624583
593 1 0.501505 0.502471 0.665346
471 1 0.686596 0.565794 0.624117
601 1 0.750051 0.50407 0.665559
479 1 0.935567 0.561238 0.625319
454 1 0.0622391 0.688598 0.624959
580 1 0.12374 0.626611 0.667567
617 1 0.250643 0.749088 0.666545
588 1 0.374209 0.625427 0.666711
462 1 0.311985 0.686708 0.624406
470 1 0.562858 0.690506 0.625244
596 1 0.625911 0.628459 0.666388
604 1 0.872134 0.624828 0.665777
478 1 0.812346 0.688823 0.623578
769 2 0.995598 0.653719 0.691524
609 1 0.0014325 0.75613 0.664394
487 1 0.19054 0.811993 0.623797
625 1 0.499863 0.75248 0.666905
620 1 0.376608 0.873541 0.666823
495 1 0.438224 0.813089 0.624213
503 1 0.686641 0.814153 0.624062
633 1 0.750811 0.752131 0.664933
511 1 0.936822 0.815448 0.623049
486 1 0.0636125 0.935555 0.624714
612 1 0.129687 0.875686 0.665874
494 1 0.314131 0.936742 0.626176
529 1 0.500836 1.0019 0.668728
502 1 0.561601 0.939279 0.625441
628 1 0.624863 0.876958 0.666309
537 1 0.747556 1.00012 0.668224
510 1 0.809779 0.93755 0.626233
513 1 0.999765 0.997986 0.665709
636 1 0.875037 0.875477 0.666179
517 1 0.0628587 0.0600026 0.707599
515 1 0.127503 0.000364433 0.749799
514 1 0.000773149 0.123363 0.749093
525 1 0.314192 0.0644985 0.711747
523 1 0.378364 0.00698153 0.755203
533 1 0.563045 0.0649492 0.71079
531 1 0.624688 0.00157791 0.752539
541 1 0.811373 0.0599642 0.710456
538 1 0.75011 0.124197 0.751804
520 1 0.1875 0.186742 0.70878
522 1 0.250532 0.127444 0.752023
528 1 0.43845 0.188968 0.710772
530 1 0.502907 0.129038 0.753086
536 1 0.6888 0.188567 0.710013
571 1 0.873819 0.247935 0.75034
544 1 0.934539 0.184252 0.70832
547 1 0.12476 0.249001 0.749836
549 1 0.0620016 0.310567 0.707132
546 1 -1.32225e-05 0.373306 0.74907
773 2 0.184101 0.34408 0.744189
554 1 0.243879 0.373951 0.747045
557 1 0.311878 0.313342 0.708396
555 1 0.374148 0.251544 0.751282
565 1 0.564552 0.313336 0.708184
563 1 0.627451 0.252462 0.751154
570 1 0.750945 0.376635 0.747698
573 1 0.813045 0.311795 0.707733
552 1 0.184111 0.441761 0.705741
560 1 0.438899 0.440345 0.707239
562 1 0.501416 0.377066 0.748895
568 1 0.688702 0.439102 0.705801
576 1 0.938135 0.436916 0.707928
603 1 0.874958 0.499235 0.749951
581 1 0.06045 0.563774 0.708847
579 1 0.122527 0.500981 0.749945
587 1 0.374404 0.500439 0.749211
589 1 0.311153 0.563994 0.708712
597 1 0.565239 0.563617 0.707165
595 1 0.628442 0.501653 0.748878
605 1 0.81192 0.563697 0.709471
586 1 0.248343 0.625992 0.750484
584 1 0.186583 0.689165 0.708872
619 1 0.375953 0.749271 0.749903
592 1 0.438113 0.687769 0.707703
594 1 0.502581 0.625953 0.748334
600 1 0.689818 0.689863 0.707535
602 1 0.751132 0.628025 0.750892
578 1 0.997818 0.624322 0.751753
608 1 0.940529 0.686039 0.704105
611 1 0.123236 0.752093 0.749499
613 1 0.0641542 0.816321 0.707149
621 1 0.314217 0.810808 0.707987
618 1 0.254997 0.875558 0.750386
627 1 0.625803 0.752159 0.748165
629 1 0.561893 0.81603 0.708255
634 1 0.750792 0.874135 0.749411
637 1 0.814159 0.8119 0.707632
635 1 0.878094 0.7489 0.748681
610 1 0.00184434 0.876772 0.749991
616 1 0.191152 0.937052 0.709318
776 2 0.371479 0.93192 0.708048
626 1 0.500723 0.877786 0.751681
624 1 0.43769 0.941011 0.711236
632 1 0.68561 0.937981 0.71008
539 1 0.875935 0.997314 0.750938
640 1 0.937933 0.936548 0.708102
519 1 0.187037 0.0647336 0.792492
649 1 0.250688 0.00265369 0.833657
527 1 0.441783 0.0677352 0.796479
657 1 0.501292 0.00118656 0.837093
535 1 0.688209 0.0628749 0.794338
660 1 0.626436 0.126005 0.836161
665 1 0.753328 0.000939531 0.834735
668 1 0.879697 0.123457 0.833631
543 1 0.940109 0.0602864 0.791208
518 1 0.0631267 0.186062 0.791248
644 1 0.125074 0.126357 0.835193
526 1 0.313787 0.188689 0.794437
681 1 0.251154 0.251033 0.835837
652 1 0.377309 0.128746 0.837308
534 1 0.5661 0.19119 0.794339
542 1 0.8141 0.184986 0.793367
697 1 0.754567 0.249432 0.835753
673 1 0.00182322 0.249834 0.832694
676 1 0.123331 0.374915 0.833198
551 1 0.1859 0.309593 0.793942
559 1 0.438286 0.314951 0.791383
689 1 0.501576 0.253899 0.834413
770 2 0.688932 0.263694 0.833123
567 1 0.691246 0.315297 0.791144
700 1 0.875114 0.373794 0.832947
575 1 0.937588 0.310915 0.791047
550 1 0.0604639 0.437216 0.791255
713 1 0.248573 0.499844 0.832002
558 1 0.308983 0.436782 0.789341
684 1 0.373857 0.377211 0.832111
566 1 0.565661 0.438715 0.790349
692 1 0.627301 0.376168 0.832864
574 1 0.812339 0.4366 0.79139
583 1 0.18508 0.563344 0.791566
721 1 0.502027 0.501255 0.831495
591 1 0.439498 0.563285 0.789402
599 1 0.689427 0.5641 0.792354
729 1 0.751225 0.499667 0.833937
705 1 0.997765 0.499516 0.833542
607 1 0.934576 0.562812 0.792837
708 1 0.121996 0.625343 0.832953
582 1 0.0603609 0.688844 0.791223
590 1 0.312262 0.687975 0.791138
716 1 0.376819 0.62561 0.831115
598 1 0.564269 0.688973 0.790011
724 1 0.624678 0.626172 0.833161
761 1 0.748903 0.750087 0.834153
732 1 0.873473 0.625671 0.835013
606 1 0.813814 0.689784 0.792554
737 1 0.998347 0.750501 0.832972
745 1 0.248792 0.750035 0.832186
615 1 0.188543 0.813725 0.790015
740 1 0.126497 0.875433 0.832187
753 1 0.501202 0.751165 0.831537
623 1 0.437309 0.813376 0.79113
748 1 0.375436 0.874633 0.834077
631 1 0.688371 0.812284 0.790996
756 1 0.627791 0.875979 0.833129
764 1 0.873775 0.872304 0.833806
639 1 0.938079 0.813535 0.790743
641 1 0.00265797 1.00048 0.833541
614 1 0.0647139 0.938897 0.791409
622 1 0.315162 0.940174 0.793152
630 1 0.562704 0.939498 0.794315
638 1 0.812333 0.93576 0.792407
645 1 0.0646832 0.0613349 0.876465
642 1 0.00158807 0.123855 0.91736
653 1 0.311784 0.0654395 0.876521
661 1 0.564501 0.0632158 0.878057
669 1 0.816501 0.0630731 0.87631
648 1 0.186408 0.190468 0.876983
650 1 0.250497 0.129398 0.917078
656 1 0.441207 0.191412 0.877532
658 1 0.501637 0.126315 0.918701
664 1 0.689822 0.186405 0.878184
691 1 0.625706 0.250484 0.917687
666 1 0.753341 0.124642 0.91846
699 1 0.878237 0.249277 0.917282
672 1 0.941057 0.187212 0.875167
675 1 0.12381 0.252521 0.918418
677 1 0.0616319 0.313269 0.875472
685 1 0.314309 0.314959 0.875975
683 1 0.379064 0.255269 0.917758
693 1 0.56507 0.315331 0.875781
701 1 0.815432 0.312708 0.876973
674 1 0.999101 0.375149 0.917001
680 1 0.187546 0.436468 0.87447
707 1 0.124882 0.498242 0.916536
682 1 0.250676 0.376226 0.917414
688 1 0.438076 0.439954 0.873258
690 1 0.502283 0.379835 0.915946
698 1 0.750433 0.374602 0.917622
696 1 0.688579 0.437548 0.875577
723 1 0.625947 0.501001 0.916634
704 1 0.936173 0.436618 0.875359
709 1 0.0618402 0.560998 0.875081
706 1 0.000729476 0.624715 0.916831
714 1 0.250409 0.624222 0.914159
717 1 0.313732 0.56252 0.872143
715 1 0.375517 0.50174 0.91566
722 1 0.499019 0.624925 0.915794
725 1 0.562855 0.562989 0.874753
730 1 0.74976 0.624877 0.919859
731 1 0.876065 0.49893 0.918413
733 1 0.814079 0.56023 0.876758
712 1 0.186178 0.687269 0.873625
720 1 0.438541 0.688394 0.873269
747 1 0.375286 0.749584 0.91568
728 1 0.684682 0.689092 0.875809
772 2 0.748882 0.628655 0.874573
736 1 0.937791 0.687495 0.875666
763 1 0.875667 0.74873 0.91803
739 1 0.1247 0.749825 0.915593
741 1 0.0634326 0.811893 0.873209
738 1 0.00231775 0.870104 0.918318
746 1 0.249129 0.873445 0.916076
749 1 0.311595 0.811378 0.874368
757 1 0.563109 0.813667 0.873652
755 1 0.621869 0.750372 0.916741
754 1 0.500957 0.87411 0.916907
762 1 0.749411 0.873146 0.917483
765 1 0.812214 0.810275 0.876551
774 2 0.00311476 0.920107 0.875454
643 1 0.127124 0.997706 0.91709
744 1 0.189071 0.937296 0.873975
651 1 0.373412 1.00006 0.916911
752 1 0.437303 0.936849 0.876451
659 1 0.627479 0.999202 0.917869
760 1 0.690162 0.937797 0.875469
667 1 0.876671 0.997641 0.917148
768 1 0.938059 0.934218 0.874681
647 1 0.186936 0.0610541 0.959237
655 1 0.437219 0.0624367 0.958054
663 1 0.688897 0.0629395 0.959146
671 1 0.937916 0.061647 0.958472
646 1 0.0624904 0.187462 0.959112
771 2 0.242518 0.124521 0.962179
654 1 0.316967 0.19278 0.958974
662 1 0.563736 0.188707 0.960105
670 1 0.814479 0.188731 0.959404
679 1 0.188027 0.314152 0.959432
687 1 0.441318 0.317668 0.958587
695 1 0.687569 0.312627 0.959392
703 1 0.938256 0.312693 0.959244
678 1 0.0619728 0.436811 0.958785
686 1 0.313598 0.439361 0.95829
694 1 0.563967 0.439898 0.959223
702 1 0.812133 0.43749 0.959449
711 1 0.187966 0.562306 0.957115
719 1 0.437643 0.563056 0.958578
727 1 0.686892 0.56242 0.959549
735 1 0.938375 0.562895 0.958996
710 1 0.0627936 0.688129 0.957951
718 1 0.312634 0.686296 0.956889
726 1 0.560518 0.686917 0.958004
734 1 0.812677 0.687418 0.95949
743 1 0.187146 0.810967 0.95814
751 1 0.437299 0.812013 0.958174
759 1 0.685437 0.811234 0.958406
767 1 0.93756 0.810879 0.959717
742 1 0.0637158 0.93556 0.958456
750 1 0.311015 0.936388 0.957852
758 1 0.563362 0.936767 0.95854
766 1 0.812137 0.936371 0.958412
