ITEM: TIMESTEP
0
ITEM: NUMBER OF ATOMS
777
ITEM: BOX BOUNDS pp pp pp
0.0000000000000000e+00 2.1840000000000000e+01
0.0000000000000000e+00 2.1840000000000000e+01
0.0000000000000000e+00 3.2759999999999998e+01
ITEM: ATOMS id type xs ys zs
1 1 0 0 0
4 1 0.125 0.125 0
5 1 0.0625 0.0625 0.0416667
9 1 0.25 0 0
12 1 0.375 0.125 0
13 1 0.3125 0.0625 0.0416667
17 1 0.5 0 0
21 1 0.5625 0.0625 0.0416667
20 1 0.625 0.125 0
25 1 0.75 0 0
28 1 0.875 0.125 0
29 1 0.8125 0.0625 0.0416667
33 1 0 0.25 0
8 1 0.1875 0.1875 0.0416667
41 1 0.25 0.25 0
16 1 0.4375 0.1875 0.0416667
49 1 0.5 0.25 0
24 1 0.6875 0.1875 0.0416667
57 1 0.75 0.25 0
32 1 0.9375 0.1875 0.0416667
36 1 0.125 0.375 0
37 1 0.0625 0.3125 0.0416667
44 1 0.375 0.375 0
45 1 0.3125 0.3125 0.0416667
53 1 0.5625 0.3125 0.0416667
52 1 0.625 0.375 0
60 1 0.875 0.375 0
61 1 0.8125 0.3125 0.0416667
65 1 0 0.5 0
40 1 0.1875 0.4375 0.0416667
73 1 0.25 0.5 0
48 1 0.4375 0.4375 0.0416667
81 1 0.5 0.5 0
56 1 0.6875 0.4375 0.0416667
89 1 0.75 0.5 0
64 1 0.9375 0.4375 0.0416667
69 1 0.0625 0.5625 0.0416667
77 1 0.3125 0.5625 0.0416667
85 1 0.5625 0.5625 0.0416667
93 1 0.8125 0.5625 0.0416667
68 1 0.125 0.625 0
97 1 0 0.75 0
72 1 0.1875 0.6875 0.0416667
105 1 0.25 0.75 0
76 1 0.375 0.625 0
80 1 0.4375 0.6875 0.0416667
113 1 0.5 0.75 0
84 1 0.625 0.625 0
88 1 0.6875 0.6875 0.0416667
121 1 0.75 0.75 0
92 1 0.875 0.625 0
96 1 0.9375 0.6875 0.0416667
100 1 0.125 0.875 0
101 1 0.0625 0.8125 0.0416667
108 1 0.375 0.875 0
109 1 0.3125 0.8125 0.0416667
117 1 0.5625 0.8125 0.0416667
116 1 0.625 0.875 0
124 1 0.875 0.875 0
125 1 0.8125 0.8125 0.0416667
104 1 0.1875 0.9375 0.0416667
112 1 0.4375 0.9375 0.0416667
120 1 0.6875 0.9375 0.0416667
128 1 0.9375 0.9375 0.0416667
2 1 0 0.125 0.0833333
3 1 0.125 0 0.0833333
7 1 0.1875 0.0625 0.125
10 1 0.25 0.125 0.0833333
11 1 0.375 0 0.0833333
15 1 0.4375 0.0625 0.125
18 1 0.5 0.125 0.0833333
19 1 0.625 0 0.0833333
23 1 0.6875 0.0625 0.125
26 1 0.75 0.125 0.0833333
27 1 0.875 0 0.0833333
31 1 0.9375 0.0625 0.125
6 1 0.0625 0.1875 0.125
35 1 0.125 0.25 0.0833333
14 1 0.3125 0.1875 0.125
43 1 0.375 0.25 0.0833333
22 1 0.5625 0.1875 0.125
51 1 0.625 0.25 0.0833333
30 1 0.8125 0.1875 0.125
59 1 0.875 0.25 0.0833333
34 1 0 0.375 0.0833333
39 1 0.1875 0.3125 0.125
42 1 0.25 0.375 0.0833333
47 1 0.4375 0.3125 0.125
50 1 0.5 0.375 0.0833333
55 1 0.6875 0.3125 0.125
58 1 0.75 0.375 0.0833333
63 1 0.9375 0.3125 0.125
38 1 0.0625 0.4375 0.125
67 1 0.125 0.5 0.0833333
46 1 0.3125 0.4375 0.125
75 1 0.375 0.5 0.0833333
54 1 0.5625 0.4375 0.125
83 1 0.625 0.5 0.0833333
62 1 0.8125 0.4375 0.125
91 1 0.875 0.5 0.0833333
71 1 0.1875 0.5625 0.125
79 1 0.4375 0.5625 0.125
87 1 0.6875 0.5625 0.125
95 1 0.9375 0.5625 0.125
66 1 0 0.625 0.0833333
70 1 0.0625 0.6875 0.125
99 1 0.125 0.75 0.0833333
74 1 0.25 0.625 0.0833333
78 1 0.3125 0.6875 0.125
107 1 0.375 0.75 0.0833333
82 1 0.5 0.625 0.0833333
86 1 0.5625 0.6875 0.125
90 1 0.75 0.625 0.0833333
115 1 0.625 0.75 0.0833333
94 1 0.8125 0.6875 0.125
123 1 0.875 0.75 0.0833333
98 1 0 0.875 0.0833333
103 1 0.1875 0.8125 0.125
106 1 0.25 0.875 0.0833333
111 1 0.4375 0.8125 0.125
114 1 0.5 0.875 0.0833333
119 1 0.6875 0.8125 0.125
122 1 0.75 0.875 0.0833333
127 1 0.9375 0.8125 0.125
102 1 0.0625 0.9375 0.125
110 1 0.3125 0.9375 0.125
118 1 0.5625 0.9375 0.125
126 1 0.8125 0.9375 0.125
129 1 0 0 0.166667
132 1 0.125 0.125 0.166667
133 1 0.0625 0.0625 0.208333
137 1 0.25 0 0.166667
140 1 0.375 0.125 0.166667
141 1 0.3125 0.0625 0.208333
145 1 0.5 0 0.166667
149 1 0.5625 0.0625 0.208333
148 1 0.625 0.125 0.166667
153 1 0.75 0 0.166667
156 1 0.875 0.125 0.166667
157 1 0.8125 0.0625 0.208333
161 1 0 0.25 0.166667
136 1 0.1875 0.1875 0.208333
169 1 0.25 0.25 0.166667
144 1 0.4375 0.1875 0.208333
177 1 0.5 0.25 0.166667
152 1 0.6875 0.1875 0.208333
185 1 0.75 0.25 0.166667
160 1 0.9375 0.1875 0.208333
164 1 0.125 0.375 0.166667
165 1 0.0625 0.3125 0.208333
172 1 0.375 0.375 0.166667
173 1 0.3125 0.3125 0.208333
181 1 0.5625 0.3125 0.208333
180 1 0.625 0.375 0.166667
188 1 0.875 0.375 0.166667
189 1 0.8125 0.3125 0.208333
193 1 0 0.5 0.166667
168 1 0.1875 0.4375 0.208333
201 1 0.25 0.5 0.166667
176 1 0.4375 0.4375 0.208333
209 1 0.5 0.5 0.166667
184 1 0.6875 0.4375 0.208333
217 1 0.75 0.5 0.166667
192 1 0.9375 0.4375 0.208333
197 1 0.0625 0.5625 0.208333
205 1 0.3125 0.5625 0.208333
213 1 0.5625 0.5625 0.208333
221 1 0.8125 0.5625 0.208333
196 1 0.125 0.625 0.166667
225 1 0 0.75 0.166667
200 1 0.1875 0.6875 0.208333
233 1 0.25 0.75 0.166667
204 1 0.375 0.625 0.166667
208 1 0.4375 0.6875 0.208333
241 1 0.5 0.75 0.166667
212 1 0.625 0.625 0.166667
216 1 0.6875 0.6875 0.208333
249 1 0.75 0.75 0.166667
220 1 0.875 0.625 0.166667
224 1 0.9375 0.6875 0.208333
228 1 0.125 0.875 0.166667
229 1 0.0625 0.8125 0.208333
236 1 0.375 0.875 0.166667
237 1 0.3125 0.8125 0.208333
245 1 0.5625 0.8125 0.208333
244 1 0.625 0.875 0.166667
252 1 0.875 0.875 0.166667
253 1 0.8125 0.8125 0.208333
232 1 0.1875 0.9375 0.208333
240 1 0.4375 0.9375 0.208333
248 1 0.6875 0.9375 0.208333
256 1 0.9375 0.9375 0.208333
130 1 0 0.125 0.25
131 1 0.125 0 0.25
135 1 0.1875 0.0625 0.291667
138 1 0.25 0.125 0.25
139 1 0.375 0 0.25
143 1 0.4375 0.0625 0.291667
146 1 0.5 0.125 0.25
147 1 0.625 0 0.25
151 1 0.6875 0.0625 0.291667
154 1 0.75 0.125 0.25
155 1 0.875 0 0.25
159 1 0.9375 0.0625 0.291667
134 1 0.0625 0.1875 0.291667
163 1 0.125 0.25 0.25
142 1 0.3125 0.1875 0.291667
171 1 0.375 0.25 0.25
150 1 0.5625 0.1875 0.291667
179 1 0.625 0.25 0.25
158 1 0.8125 0.1875 0.291667
187 1 0.875 0.25 0.25
162 1 0 0.375 0.25
167 1 0.1875 0.3125 0.291667
170 1 0.25 0.375 0.25
175 1 0.4375 0.3125 0.291667
178 1 0.5 0.375 0.25
183 1 0.6875 0.3125 0.291667
186 1 0.75 0.375 0.25
191 1 0.9375 0.3125 0.291667
166 1 0.0625 0.4375 0.291667
195 1 0.125 0.5 0.25
174 1 0.3125 0.4375 0.291667
203 1 0.375 0.5 0.25
182 1 0.5625 0.4375 0.291667
211 1 0.625 0.5 0.25
190 1 0.8125 0.4375 0.291667
219 1 0.875 0.5 0.25
199 1 0.1875 0.5625 0.291667
207 1 0.4375 0.5625 0.291667
215 1 0.6875 0.5625 0.291667
223 1 0.9375 0.5625 0.291667
194 1 0 0.625 0.25
198 1 0.0625 0.6875 0.291667
227 1 0.125 0.75 0.25
202 1 0.25 0.625 0.25
206 1 0.3125 0.6875 0.291667
235 1 0.375 0.75 0.25
210 1 0.5 0.625 0.25
214 1 0.5625 0.6875 0.291667
218 1 0.75 0.625 0.25
243 1 0.625 0.75 0.25
222 1 0.8125 0.6875 0.291667
251 1 0.875 0.75 0.25
226 1 0 0.875 0.25
231 1 0.1875 0.8125 0.291667
234 1 0.25 0.875 0.25
239 1 0.4375 0.8125 0.291667
242 1 0.5 0.875 0.25
247 1 0.6875 0.8125 0.291667
250 1 0.75 0.875 0.25
255 1 0.9375 0.8125 0.291667
230 1 0.0625 0.9375 0.291667
238 1 0.3125 0.9375 0.291667
246 1 0.5625 0.9375 0.291667
254 1 0.8125 0.9375 0.291667
257 1 0 0 0.333333
260 1 0.125 0.125 0.333333
261 1 0.0625 0.0625 0.375
265 1 0.25 0 0.333333
268 1 0.375 0.125 0.333333
269 1 0.3125 0.0625 0.375
273 1 0.5 0 0.333333
277 1 0.5625 0.0625 0.375
276 1 0.625 0.125 0.333333
281 1 0.75 0 0.333333
284 1 0.875 0.125 0.333333
285 1 0.8125 0.0625 0.375
289 1 0 0.25 0.333333
264 1 0.1875 0.1875 0.375
297 1 0.25 0.25 0.333333
272 1 0.4375 0.1875 0.375
305 1 0.5 0.25 0.333333
280 1 0.6875 0.1875 0.375
313 1 0.75 0.25 0.333333
288 1 0.9375 0.1875 0.375
292 1 0.125 0.375 0.333333
293 1 0.0625 0.3125 0.375
300 1 0.375 0.375 0.333333
301 1 0.3125 0.3125 0.375
309 1 0.5625 0.3125 0.375
308 1 0.625 0.375 0.333333
316 1 0.875 0.375 0.333333
317 1 0.8125 0.3125 0.375
321 1 0 0.5 0.333333
296 1 0.1875 0.4375 0.375
329 1 0.25 0.5 0.333333
304 1 0.4375 0.4375 0.375
337 1 0.5 0.5 0.333333
312 1 0.6875 0.4375 0.375
345 1 0.75 0.5 0.333333
320 1 0.9375 0.4375 0.375
325 1 0.0625 0.5625 0.375
333 1 0.3125 0.5625 0.375
341 1 0.5625 0.5625 0.375
349 1 0.8125 0.5625 0.375
324 1 0.125 0.625 0.333333
353 1 0 0.75 0.333333
328 1 0.1875 0.6875 0.375
361 1 0.25 0.75 0.333333
332 1 0.375 0.625 0.333333
336 1 0.4375 0.6875 0.375
369 1 0.5 0.75 0.333333
340 1 0.625 0.625 0.333333
344 1 0.6875 0.6875 0.375
377 1 0.75 0.75 0.333333
348 1 0.875 0.625 0.333333
352 1 0.9375 0.6875 0.375
356 1 0.125 0.875 0.333333
357 1 0.0625 0.8125 0.375
364 1 0.375 0.875 0.333333
365 1 0.3125 0.8125 0.375
373 1 0.5625 0.8125 0.375
372 1 0.625 0.875 0.333333
380 1 0.875 0.875 0.333333
381 1 0.8125 0.8125 0.375
360 1 0.1875 0.9375 0.375
368 1 0.4375 0.9375 0.375
376 1 0.6875 0.9375 0.375
384 1 0.9375 0.9375 0.375
258 1 0 0.125 0.416667
259 1 0.125 0 0.416667
263 1 0.1875 0.0625 0.458333
266 1 0.25 0.125 0.416667
267 1 0.375 0 0.416667
271 1 0.4375 0.0625 0.458333
274 1 0.5 0.125 0.416667
275 1 0.625 0 0.416667
279 1 0.6875 0.0625 0.458333
282 1 0.75 0.125 0.416667
283 1 0.875 0 0.416667
287 1 0.9375 0.0625 0.458333
262 1 0.0625 0.1875 0.458333
291 1 0.125 0.25 0.416667
270 1 0.3125 0.1875 0.458333
299 1 0.375 0.25 0.416667
278 1 0.5625 0.1875 0.458333
307 1 0.625 0.25 0.416667
286 1 0.8125 0.1875 0.458333
315 1 0.875 0.25 0.416667
290 1 0 0.375 0.416667
295 1 0.1875 0.3125 0.458333
298 1 0.25 0.375 0.416667
303 1 0.4375 0.3125 0.458333
306 1 0.5 0.375 0.416667
311 1 0.6875 0.3125 0.458333
314 1 0.75 0.375 0.416667
319 1 0.9375 0.3125 0.458333
294 1 0.0625 0.4375 0.458333
323 1 0.125 0.5 0.416667
302 1 0.3125 0.4375 0.458333
331 1 0.375 0.5 0.416667
310 1 0.5625 0.4375 0.458333
339 1 0.625 0.5 0.416667
318 1 0.8125 0.4375 0.458333
347 1 0.875 0.5 0.416667
327 1 0.1875 0.5625 0.458333
335 1 0.4375 0.5625 0.458333
343 1 0.6875 0.5625 0.458333
351 1 0.9375 0.5625 0.458333
322 1 0 0.625 0.416667
326 1 0.0625 0.6875 0.458333
355 1 0.125 0.75 0.416667
330 1 0.25 0.625 0.416667
334 1 0.3125 0.6875 0.458333
363 1 0.375 0.75 0.416667
338 1 0.5 0.625 0.416667
342 1 0.5625 0.6875 0.458333
346 1 0.75 0.625 0.416667
371 1 0.625 0.75 0.416667
350 1 0.8125 0.6875 0.458333
379 1 0.875 0.75 0.416667
354 1 0 0.875 0.416667
359 1 0.1875 0.8125 0.458333
362 1 0.25 0.875 0.416667
367 1 0.4375 0.8125 0.458333
370 1 0.5 0.875 0.416667
375 1 0.6875 0.8125 0.458333
378 1 0.75 0.875 0.416667
383 1 0.9375 0.8125 0.458333
358 1 0.0625 0.9375 0.458333
366 1 0.3125 0.9375 0.458333
374 1 0.5625 0.9375 0.458333
382 1 0.8125 0.9375 0.458333
385 1 0 0 0.5
388 1 0.125 0.125 0.5
393 1 0.25 0 0.5
396 1 0.375 0.125 0.5
401 1 0.5 0 0.5
404 1 0.625 0.125 0.5
409 1 0.75 0 0.5
412 1 0.875 0.125 0.5
417 1 0 0.25 0.5
425 1 0.25 0.25 0.5
433 1 0.5 0.25 0.5
441 1 0.75 0.25 0.5
420 1 0.125 0.375 0.5
428 1 0.375 0.375 0.5
436 1 0.625 0.375 0.5
444 1 0.875 0.375 0.5
449 1 0 0.5 0.5
457 1 0.25 0.5 0.5
465 1 0.5 0.5 0.5
473 1 0.75 0.5 0.5
452 1 0.125 0.625 0.5
481 1 0 0.75 0.5
489 1 0.25 0.75 0.5
460 1 0.375 0.625 0.5
497 1 0.5 0.75 0.5
468 1 0.625 0.625 0.5
505 1 0.75 0.75 0.5
476 1 0.875 0.625 0.5
484 1 0.125 0.875 0.5
492 1 0.375 0.875 0.5
500 1 0.625 0.875 0.5
508 1 0.875 0.875 0.5
386 1 0 0.125 0.583333
387 1 0.125 0 0.583333
389 1 0.0625 0.0625 0.541667
394 1 0.25 0.125 0.583333
395 1 0.375 0 0.583333
397 1 0.3125 0.0625 0.541667
402 1 0.5 0.125 0.583333
775 2 0.475817 0.0577241 0.584561
405 1 0.5625 0.0625 0.541667
403 1 0.625 0 0.583333
410 1 0.75 0.125 0.583333
411 1 0.875 0 0.583333
413 1 0.8125 0.0625 0.541667
419 1 0.125 0.25 0.583333
392 1 0.1875 0.1875 0.541667
427 1 0.375 0.25 0.583333
400 1 0.4375 0.1875 0.541667
408 1 0.6875 0.1875 0.541667
435 1 0.625 0.25 0.583333
443 1 0.875 0.25 0.583333
416 1 0.9375 0.1875 0.541667
418 1 0 0.375 0.583333
421 1 0.0625 0.3125 0.541667
777 2 0.120149 0.349622 0.548788
426 1 0.25 0.375 0.583333
429 1 0.3125 0.3125 0.541667
434 1 0.5 0.375 0.583333
437 1 0.5625 0.3125 0.541667
442 1 0.75 0.375 0.583333
445 1 0.8125 0.3125 0.541667
451 1 0.125 0.5 0.583333
424 1 0.1875 0.4375 0.541667
459 1 0.375 0.5 0.583333
432 1 0.4375 0.4375 0.541667
440 1 0.6875 0.4375 0.541667
467 1 0.625 0.5 0.583333
475 1 0.875 0.5 0.583333
448 1 0.9375 0.4375 0.541667
453 1 0.0625 0.5625 0.541667
461 1 0.3125 0.5625 0.541667
469 1 0.5625 0.5625 0.541667
477 1 0.8125 0.5625 0.541667
450 1 0 0.625 0.583333
483 1 0.125 0.75 0.583333
456 1 0.1875 0.6875 0.541667
458 1 0.25 0.625 0.583333
491 1 0.375 0.75 0.583333
464 1 0.4375 0.6875 0.541667
466 1 0.5 0.625 0.583333
472 1 0.6875 0.6875 0.541667
474 1 0.75 0.625 0.583333
499 1 0.625 0.75 0.583333
507 1 0.875 0.75 0.583333
480 1 0.9375 0.6875 0.541667
482 1 0 0.875 0.583333
485 1 0.0625 0.8125 0.541667
490 1 0.25 0.875 0.583333
493 1 0.3125 0.8125 0.541667
498 1 0.5 0.875 0.583333
501 1 0.5625 0.8125 0.541667
506 1 0.75 0.875 0.583333
509 1 0.8125 0.8125 0.541667
488 1 0.1875 0.9375 0.541667
496 1 0.4375 0.9375 0.541667
504 1 0.6875 0.9375 0.541667
512 1 0.9375 0.9375 0.541667
513 1 0 0 0.666667
516 1 0.125 0.125 0.666667
391 1 0.1875 0.0625 0.625
521 1 0.25 0 0.666667
524 1 0.375 0.125 0.666667
399 1 0.4375 0.0625 0.625
529 1 0.5 0 0.666667
407 1 0.6875 0.0625 0.625
532 1 0.625 0.125 0.666667
537 1 0.75 0 0.666667
540 1 0.875 0.125 0.666667
415 1 0.9375 0.0625 0.625
390 1 0.0625 0.1875 0.625
545 1 0 0.25 0.666667
553 1 0.25 0.25 0.666667
398 1 0.3125 0.1875 0.625
561 1 0.5 0.25 0.666667
406 1 0.5625 0.1875 0.625
569 1 0.75 0.25 0.666667
414 1 0.8125 0.1875 0.625
548 1 0.125 0.375 0.666667
423 1 0.1875 0.3125 0.625
556 1 0.375 0.375 0.666667
431 1 0.4375 0.3125 0.625
439 1 0.6875 0.3125 0.625
564 1 0.625 0.375 0.666667
770 2 0.659384 0.269783 0.621653
572 1 0.875 0.375 0.666667
447 1 0.9375 0.3125 0.625
422 1 0.0625 0.4375 0.625
577 1 0 0.5 0.666667
585 1 0.25 0.5 0.666667
430 1 0.3125 0.4375 0.625
593 1 0.5 0.5 0.666667
438 1 0.5625 0.4375 0.625
601 1 0.75 0.5 0.666667
446 1 0.8125 0.4375 0.625
455 1 0.1875 0.5625 0.625
463 1 0.4375 0.5625 0.625
471 1 0.6875 0.5625 0.625
479 1 0.9375 0.5625 0.625
454 1 0.0625 0.6875 0.625
580 1 0.125 0.625 0.666667
609 1 0 0.75 0.666667
617 1 0.25 0.75 0.666667
462 1 0.3125 0.6875 0.625
588 1 0.375 0.625 0.666667
625 1 0.5 0.75 0.666667
470 1 0.5625 0.6875 0.625
596 1 0.625 0.625 0.666667
633 1 0.75 0.75 0.666667
478 1 0.8125 0.6875 0.625
604 1 0.875 0.625 0.666667
612 1 0.125 0.875 0.666667
487 1 0.1875 0.8125 0.625
620 1 0.375 0.875 0.666667
495 1 0.4375 0.8125 0.625
503 1 0.6875 0.8125 0.625
628 1 0.625 0.875 0.666667
636 1 0.875 0.875 0.666667
511 1 0.9375 0.8125 0.625
486 1 0.0625 0.9375 0.625
494 1 0.3125 0.9375 0.625
502 1 0.5625 0.9375 0.625
510 1 0.8125 0.9375 0.625
514 1 0 0.125 0.75
515 1 0.125 0 0.75
517 1 0.0625 0.0625 0.708333
522 1 0.25 0.125 0.75
523 1 0.375 0 0.75
525 1 0.3125 0.0625 0.708333
530 1 0.5 0.125 0.75
533 1 0.5625 0.0625 0.708333
531 1 0.625 0 0.75
538 1 0.75 0.125 0.75
539 1 0.875 0 0.75
541 1 0.8125 0.0625 0.708333
547 1 0.125 0.25 0.75
520 1 0.1875 0.1875 0.708333
555 1 0.375 0.25 0.75
528 1 0.4375 0.1875 0.708333
536 1 0.6875 0.1875 0.708333
563 1 0.625 0.25 0.75
571 1 0.875 0.25 0.75
544 1 0.9375 0.1875 0.708333
546 1 0 0.375 0.75
549 1 0.0625 0.3125 0.708333
554 1 0.25 0.375 0.75
557 1 0.3125 0.3125 0.708333
562 1 0.5 0.375 0.75
565 1 0.5625 0.3125 0.708333
570 1 0.75 0.375 0.75
573 1 0.8125 0.3125 0.708333
579 1 0.125 0.5 0.75
552 1 0.1875 0.4375 0.708333
587 1 0.375 0.5 0.75
560 1 0.4375 0.4375 0.708333
568 1 0.6875 0.4375 0.708333
595 1 0.625 0.5 0.75
603 1 0.875 0.5 0.75
576 1 0.9375 0.4375 0.708333
581 1 0.0625 0.5625 0.708333
589 1 0.3125 0.5625 0.708333
597 1 0.5625 0.5625 0.708333
605 1 0.8125 0.5625 0.708333
578 1 0 0.625 0.75
611 1 0.125 0.75 0.75
584 1 0.1875 0.6875 0.708333
586 1 0.25 0.625 0.75
619 1 0.375 0.75 0.75
592 1 0.4375 0.6875 0.708333
594 1 0.5 0.625 0.75
600 1 0.6875 0.6875 0.708333
602 1 0.75 0.625 0.75
627 1 0.625 0.75 0.75
635 1 0.875 0.75 0.75
608 1 0.9375 0.6875 0.708333
769 2 0.961667 0.737517 0.720999
610 1 0 0.875 0.75
613 1 0.0625 0.8125 0.708333
618 1 0.25 0.875 0.75
621 1 0.3125 0.8125 0.708333
626 1 0.5 0.875 0.75
776 2 0.442546 0.862521 0.698195
629 1 0.5625 0.8125 0.708333
634 1 0.75 0.875 0.75
637 1 0.8125 0.8125 0.708333
616 1 0.1875 0.9375 0.708333
624 1 0.4375 0.9375 0.708333
632 1 0.6875 0.9375 0.708333
640 1 0.9375 0.9375 0.708333
641 1 0 0 0.833333
644 1 0.125 0.125 0.833333
519 1 0.1875 0.0625 0.791667
649 1 0.25 0 0.833333
652 1 0.375 0.125 0.833333
527 1 0.4375 0.0625 0.791667
657 1 0.5 0 0.833333
535 1 0.6875 0.0625 0.791667
660 1 0.625 0.125 0.833333
665 1 0.75 0 0.833333
668 1 0.875 0.125 0.833333
543 1 0.9375 0.0625 0.791667
518 1 0.0625 0.1875 0.791667
673 1 0 0.25 0.833333
681 1 0.25 0.25 0.833333
526 1 0.3125 0.1875 0.791667
689 1 0.5 0.25 0.833333
534 1 0.5625 0.1875 0.791667
697 1 0.75 0.25 0.833333
542 1 0.8125 0.1875 0.791667
676 1 0.125 0.375 0.833333
551 1 0.1875 0.3125 0.791667
684 1 0.375 0.375 0.833333
773 2 0.255623 0.260282 0.782446
559 1 0.4375 0.3125 0.791667
567 1 0.6875 0.3125 0.791667
692 1 0.625 0.375 0.833333
700 1 0.875 0.375 0.833333
575 1 0.9375 0.3125 0.791667
550 1 0.0625 0.4375 0.791667
705 1 0 0.5 0.833333
713 1 0.25 0.5 0.833333
558 1 0.3125 0.4375 0.791667
721 1 0.5 0.5 0.833333
566 1 0.5625 0.4375 0.791667
729 1 0.75 0.5 0.833333
574 1 0.8125 0.4375 0.791667
583 1 0.1875 0.5625 0.791667
591 1 0.4375 0.5625 0.791667
599 1 0.6875 0.5625 0.791667
607 1 0.9375 0.5625 0.791667
582 1 0.0625 0.6875 0.791667
708 1 0.125 0.625 0.833333
737 1 0 0.75 0.833333
745 1 0.25 0.75 0.833333
590 1 0.3125 0.6875 0.791667
716 1 0.375 0.625 0.833333
753 1 0.5 0.75 0.833333
598 1 0.5625 0.6875 0.791667
724 1 0.625 0.625 0.833333
761 1 0.75 0.75 0.833333
606 1 0.8125 0.6875 0.791667
732 1 0.875 0.625 0.833333
740 1 0.125 0.875 0.833333
615 1 0.1875 0.8125 0.791667
748 1 0.375 0.875 0.833333
623 1 0.4375 0.8125 0.791667
631 1 0.6875 0.8125 0.791667
756 1 0.625 0.875 0.833333
764 1 0.875 0.875 0.833333
639 1 0.9375 0.8125 0.791667
614 1 0.0625 0.9375 0.791667
622 1 0.3125 0.9375 0.791667
630 1 0.5625 0.9375 0.791667
638 1 0.8125 0.9375 0.791667
642 1 0 0.125 0.916667
643 1 0.125 0 0.916667
645 1 0.0625 0.0625 0.875
650 1 0.25 0.125 0.916667
651 1 0.375 0 0.916667
653 1 0.3125 0.0625 0.875
658 1 0.5 0.125 0.916667
661 1 0.5625 0.0625 0.875
659 1 0.625 0 0.916667
666 1 0.75 0.125 0.916667
667 1 0.875 0 0.916667
669 1 0.8125 0.0625 0.875
675 1 0.125 0.25 0.916667
648 1 0.1875 0.1875 0.875
683 1 0.375 0.25 0.916667
656 1 0.4375 0.1875 0.875
664 1 0.6875 0.1875 0.875
691 1 0.625 0.25 0.916667
699 1 0.875 0.25 0.916667
672 1 0.9375 0.1875 0.875
674 1 0 0.375 0.916667
677 1 0.0625 0.3125 0.875
682 1 0.25 0.375 0.916667
685 1 0.3125 0.3125 0.875
690 1 0.5 0.375 0.916667
693 1 0.5625 0.3125 0.875
698 1 0.75 0.375 0.916667
701 1 0.8125 0.3125 0.875
707 1 0.125 0.5 0.916667
680 1 0.1875 0.4375 0.875
715 1 0.375 0.5 0.916667
688 1 0.4375 0.4375 0.875
696 1 0.6875 0.4375 0.875
723 1 0.625 0.5 0.916667
731 1 0.875 0.5 0.916667
704 1 0.9375 0.4375 0.875
709 1 0.0625 0.5625 0.875
717 1 0.3125 0.5625 0.875
725 1 0.5625 0.5625 0.875
733 1 0.8125 0.5625 0.875
706 1 0 0.625 0.916667
739 1 0.125 0.75 0.916667
712 1 0.1875 0.6875 0.875
714 1 0.25 0.625 0.916667
771 2 0.238391 0.644361 0.886606
774 2 0.125879 0.652454 0.897289
747 1 0.375 0.75 0.916667
720 1 0.4375 0.6875 0.875
722 1 0.5 0.625 0.916667
728 1 0.6875 0.6875 0.875
730 1 0.75 0.625 0.916667
755 1 0.625 0.75 0.916667
763 1 0.875 0.75 0.916667
736 1 0.9375 0.6875 0.875
738 1 0 0.875 0.916667
741 1 0.0625 0.8125 0.875
746 1 0.25 0.875 0.916667
749 1 0.3125 0.8125 0.875
754 1 0.5 0.875 0.916667
757 1 0.5625 0.8125 0.875
762 1 0.75 0.875 0.916667
765 1 0.8125 0.8125 0.875
744 1 0.1875 0.9375 0.875
752 1 0.4375 0.9375 0.875
760 1 0.6875 0.9375 0.875
768 1 0.9375 0.9375 0.875
647 1 0.1875 0.0625 0.958333
655 1 0.4375 0.0625 0.958333
663 1 0.6875 0.0625 0.958333
671 1 0.9375 0.0625 0.958333
646 1 0.0625 0.1875 0.958333
654 1 0.3125 0.1875 0.958333
662 1 0.5625 0.1875 0.958333
670 1 0.8125 0.1875 0.958333
679 1 0.1875 0.3125 0.958333
687 1 0.4375 0.3125 0.958333
695 1 0.6875 0.3125 0.958333
703 1 0.9375 0.3125 0.958333
678 1 0.0625 0.4375 0.958333
686 1 0.3125 0.4375 0.958333
694 1 0.5625 0.4375 0.958333
702 1 0.8125 0.4375 0.958333
711 1 0.1875 0.5625 0.958333
719 1 0.4375 0.5625 0.958333
727 1 0.6875 0.5625 0.958333
735 1 0.9375 0.5625 0.958333
710 1 0.0625 0.6875 0.958333
718 1 0.3125 0.6875 0.958333
726 1 0.5625 0.6875 0.958333
734 1 0.8125 0.6875 0.958333
743 1 0.1875 0.8125 0.958333
751 1 0.4375 0.8125 0.958333
759 1 0.6875 0.8125 0.958333
767 1 0.9375 0.8125 0.958333
772 2 0.945844 0.793717 0.99984
742 1 0.0625 0.9375 0.958333
750 1 0.3125 0.9375 0.958333
758 1 0.5625 0.9375 0.958333
766 1 0.8125 0.9375 0.958333
ITEM: TIMESTEP
1000
ITEM: NUMBER OF ATOMS
777
ITEM: BOX BOUNDS pp pp pp
0.0000000000000000e+00 2.1840000000000000e+01
0.0000000000000000e+00 2.1840000000000000e+01
0.0000000000000000e+00 3.2759999999999998e+01
ITEM: ATOMS id type xs ys zs
1 1 0 0 0
4 1 0.125 0.125 0
5 1 0.0625 0.0625 0.0416667
9 1 0.25 0 0
12 1 0.375 0.125 0
13 1 0.3125 0.0625 0.0416667
17 1 0.5 0 0
21 1 0.5625 0.0625 0.0416667
20 1 0.625 0.125 0
25 1 0.75 0 0
28 1 0.875 0.125 0
29 1 0.8125 0.0625 0.0416667
33 1 0 0.25 0
8 1 0.1875 0.1875 0.0416667
41 1 0.25 0.25 0
16 1 0.4375 0.1875 0.0416667
49 1 0.5 0.25 0
24 1 0.6875 0.1875 0.0416667
57 1 0.75 0.25 0
32 1 0.9375 0.1875 0.0416667
36 1 0.125 0.375 0
37 1 0.0625 0.3125 0.0416667
44 1 0.375 0.375 0
45 1 0.3125 0.3125 0.0416667
53 1 0.5625 0.3125 0.0416667
52 1 0.625 0.375 0
60 1 0.875 0.375 0
61 1 0.8125 0.3125 0.0416667
65 1 0 0.5 0
40 1 0.1875 0.4375 0.0416667
73 1 0.25 0.5 0
48 1 0.4375 0.4375 0.0416667
81 1 0.5 0.5 0
56 1 0.6875 0.4375 0.0416667
89 1 0.75 0.5 0
64 1 0.9375 0.4375 0.0416667
69 1 0.0625 0.5625 0.0416667
77 1 0.3125 0.5625 0.0416667
85 1 0.5625 0.5625 0.0416667
93 1 0.8125 0.5625 0.0416667
68 1 0.125 0.625 0
97 1 0 0.75 0
72 1 0.1875 0.6875 0.0416667
105 1 0.25 0.75 0
76 1 0.375 0.625 0
80 1 0.4375 0.6875 0.0416667
113 1 0.5 0.75 0
84 1 0.625 0.625 0
88 1 0.6875 0.6875 0.0416667
121 1 0.75 0.75 0
92 1 0.875 0.625 0
96 1 0.9375 0.6875 0.0416667
100 1 0.125 0.875 0
101 1 0.0625 0.8125 0.0416667
108 1 0.375 0.875 0
109 1 0.3125 0.8125 0.0416667
117 1 0.5625 0.8125 0.0416667
116 1 0.625 0.875 0
124 1 0.875 0.875 0
125 1 0.8125 0.8125 0.0416667
104 1 0.1875 0.9375 0.0416667
112 1 0.4375 0.9375 0.0416667
120 1 0.6875 0.9375 0.0416667
128 1 0.9375 0.9375 0.0416667
2 1 0 0.125 0.0833333
3 1 0.125 0 0.0833333
7 1 0.1875 0.0625 0.125
10 1 0.25 0.125 0.0833333
11 1 0.375 0 0.0833333
15 1 0.4375 0.0625 0.125
18 1 0.5 0.125 0.0833333
19 1 0.625 0 0.0833333
23 1 0.6875 0.0625 0.125
26 1 0.75 0.125 0.0833333
27 1 0.875 0 0.0833333
31 1 0.9375 0.0625 0.125
6 1 0.0625 0.1875 0.125
35 1 0.125 0.25 0.0833333
14 1 0.3125 0.1875 0.125
43 1 0.375 0.25 0.0833333
22 1 0.5625 0.1875 0.125
51 1 0.625 0.25 0.0833333
30 1 0.8125 0.1875 0.125
59 1 0.875 0.25 0.0833333
34 1 0 0.375 0.0833333
39 1 0.1875 0.3125 0.125
42 1 0.25 0.375 0.0833333
47 1 0.4375 0.3125 0.125
50 1 0.5 0.375 0.0833333
55 1 0.6875 0.3125 0.125
58 1 0.75 0.375 0.0833333
63 1 0.9375 0.3125 0.125
38 1 0.0625 0.4375 0.125
67 1 0.125 0.5 0.0833333
46 1 0.3125 0.4375 0.125
75 1 0.375 0.5 0.0833333
54 1 0.5625 0.4375 0.125
83 1 0.625 0.5 0.0833333
62 1 0.8125 0.4375 0.125
91 1 0.875 0.5 0.0833333
71 1 0.1875 0.5625 0.125
79 1 0.4375 0.5625 0.125
87 1 0.6875 0.5625 0.125
95 1 0.9375 0.5625 0.125
66 1 0 0.625 0.0833333
70 1 0.0625 0.6875 0.125
99 1 0.125 0.75 0.0833333
74 1 0.25 0.625 0.0833333
78 1 0.3125 0.6875 0.125
107 1 0.375 0.75 0.0833333
82 1 0.5 0.625 0.0833333
86 1 0.5625 0.6875 0.125
90 1 0.75 0.625 0.0833333
115 1 0.625 0.75 0.0833333
94 1 0.8125 0.6875 0.125
123 1 0.875 0.75 0.0833333
98 1 0 0.875 0.0833333
103 1 0.1875 0.8125 0.125
106 1 0.25 0.875 0.0833333
111 1 0.4375 0.8125 0.125
114 1 0.5 0.875 0.0833333
119 1 0.6875 0.8125 0.125
122 1 0.75 0.875 0.0833333
127 1 0.9375 0.8125 0.125
102 1 0.0625 0.9375 0.125
110 1 0.3125 0.9375 0.125
118 1 0.5625 0.9375 0.125
126 1 0.8125 0.9375 0.125
129 1 0 0 0.166667
132 1 0.125 0.125 0.166667
133 1 0.0625 0.0625 0.208333
137 1 0.25 0 0.166667
140 1 0.375 0.125 0.166667
141 1 0.3125 0.0625 0.208333
145 1 0.5 0 0.166667
149 1 0.5625 0.0625 0.208333
148 1 0.625 0.125 0.166667
153 1 0.75 0 0.166667
156 1 0.875 0.125 0.166667
157 1 0.8125 0.0625 0.208333
161 1 0 0.25 0.166667
136 1 0.1875 0.1875 0.208333
169 1 0.25 0.25 0.166667
144 1 0.4375 0.1875 0.208333
177 1 0.5 0.25 0.166667
152 1 0.6875 0.1875 0.208333
185 1 0.75 0.25 0.166667
160 1 0.9375 0.1875 0.208333
164 1 0.125 0.375 0.166667
165 1 0.0625 0.3125 0.208333
172 1 0.375 0.375 0.166667
173 1 0.3125 0.3125 0.208333
181 1 0.5625 0.3125 0.208333
180 1 0.625 0.375 0.166667
188 1 0.875 0.375 0.166667
189 1 0.8125 0.3125 0.208333
193 1 0 0.5 0.166667
168 1 0.1875 0.4375 0.208333
201 1 0.25 0.5 0.166667
176 1 0.4375 0.4375 0.208333
209 1 0.5 0.5 0.166667
184 1 0.6875 0.4375 0.208333
217 1 0.75 0.5 0.166667
192 1 0.9375 0.4375 0.208333
197 1 0.0625 0.5625 0.208333
205 1 0.3125 0.5625 0.208333
213 1 0.5625 0.5625 0.208333
221 1 0.8125 0.5625 0.208333
196 1 0.125 0.625 0.166667
225 1 0 0.75 0.166667
200 1 0.1875 0.6875 0.208333
233 1 0.25 0.75 0.166667
204 1 0.375 0.625 0.166667
208 1 0.4375 0.6875 0.208333
241 1 0.5 0.75 0.166667
212 1 0.625 0.625 0.166667
216 1 0.6875 0.6875 0.208333
249 1 0.75 0.75 0.166667
220 1 0.875 0.625 0.166667
224 1 0.9375 0.6875 0.208333
228 1 0.125 0.875 0.166667
229 1 0.0625 0.8125 0.208333
236 1 0.375 0.875 0.166667
237 1 0.3125 0.8125 0.208333
245 1 0.5625 0.8125 0.208333
244 1 0.625 0.875 0.166667
252 1 0.875 0.875 0.166667
253 1 0.8125 0.8125 0.208333
232 1 0.1875 0.9375 0.208333
240 1 0.4375 0.9375 0.208333
248 1 0.6875 0.9375 0.208333
256 1 0.9375 0.9375 0.208333
130 1 0 0.125 0.25
131 1 0.125 0 0.25
135 1 0.1875 0.0625 0.291667
138 1 0.25 0.125 0.25
139 1 0.375 0 0.25
143 1 0.4375 0.0625 0.291667
146 1 0.5 0.125 0.25
147 1 0.625 0 0.25
151 1 0.6875 0.0625 0.291667
154 1 0.75 0.125 0.25
155 1 0.875 0 0.25
159 1 0.9375 0.0625 0.291667
134 1 0.0625 0.1875 0.291667
163 1 0.125 0.25 0.25
142 1 0.3125 0.1875 0.291667
171 1 0.375 0.25 0.25
150 1 0.5625 0.1875 0.291667
179 1 0.625 0.25 0.25
158 1 0.8125 0.1875 0.291667
187 1 0.875 0.25 0.25
162 1 0 0.375 0.25
167 1 0.1875 0.3125 0.291667
170 1 0.25 0.375 0.25
175 1 0.4375 0.3125 0.291667
178 1 0.5 0.375 0.25
183 1 0.6875 0.3125 0.291667
186 1 0.75 0.375 0.25
191 1 0.9375 0.3125 0.291667
166 1 0.0625 0.4375 0.291667
195 1 0.125 0.5 0.25
174 1 0.3125 0.4375 0.291667
203 1 0.375 0.5 0.25
182 1 0.5625 0.4375 0.291667
211 1 0.625 0.5 0.25
190 1 0.8125 0.4375 0.291667
219 1 0.875 0.5 0.25
199 1 0.1875 0.5625 0.291667
207 1 0.4375 0.5625 0.291667
215 1 0.6875 0.5625 0.291667
223 1 0.9375 0.5625 0.291667
194 1 0 0.625 0.25
198 1 0.0625 0.6875 0.291667
227 1 0.125 0.75 0.25
202 1 0.25 0.625 0.25
206 1 0.3125 0.6875 0.291667
235 1 0.375 0.75 0.25
210 1 0.5 0.625 0.25
214 1 0.5625 0.6875 0.291667
218 1 0.75 0.625 0.25
243 1 0.625 0.75 0.25
222 1 0.8125 0.6875 0.291667
251 1 0.875 0.75 0.25
226 1 0 0.875 0.25
231 1 0.1875 0.8125 0.291667
234 1 0.25 0.875 0.25
239 1 0.4375 0.8125 0.291667
242 1 0.5 0.875 0.25
247 1 0.6875 0.8125 0.291667
250 1 0.75 0.875 0.25
255 1 0.9375 0.8125 0.291667
230 1 0.0625 0.9375 0.291667
238 1 0.3125 0.9375 0.291667
246 1 0.5625 0.9375 0.291667
254 1 0.8125 0.9375 0.291667
257 1 0 0 0.333333
260 1 0.125 0.125 0.333333
261 1 0.0625 0.0625 0.375
265 1 0.25 0 0.333333
268 1 0.375 0.125 0.333333
269 1 0.3125 0.0625 0.375
273 1 0.5 0 0.333333
277 1 0.5625 0.0625 0.375
276 1 0.625 0.125 0.333333
281 1 0.75 0 0.333333
284 1 0.875 0.125 0.333333
285 1 0.8125 0.0625 0.375
289 1 0 0.25 0.333333
264 1 0.1875 0.1875 0.375
297 1 0.25 0.25 0.333333
272 1 0.4375 0.1875 0.375
305 1 0.5 0.25 0.333333
280 1 0.6875 0.1875 0.375
313 1 0.75 0.25 0.333333
288 1 0.9375 0.1875 0.375
292 1 0.125 0.375 0.333333
293 1 0.0625 0.3125 0.375
300 1 0.375 0.375 0.333333
301 1 0.3125 0.3125 0.375
309 1 0.5625 0.3125 0.375
308 1 0.625 0.375 0.333333
316 1 0.875 0.375 0.333333
317 1 0.8125 0.3125 0.375
321 1 0 0.5 0.333333
296 1 0.1875 0.4375 0.375
329 1 0.25 0.5 0.333333
304 1 0.4375 0.4375 0.375
337 1 0.5 0.5 0.333333
312 1 0.6875 0.4375 0.375
345 1 0.75 0.5 0.333333
320 1 0.9375 0.4375 0.375
325 1 0.0625 0.5625 0.375
333 1 0.3125 0.5625 0.375
341 1 0.5625 0.5625 0.375
349 1 0.8125 0.5625 0.375
324 1 0.125 0.625 0.333333
353 1 0 0.75 0.333333
328 1 0.1875 0.6875 0.375
361 1 0.25 0.75 0.333333
332 1 0.375 0.625 0.333333
336 1 0.4375 0.6875 0.375
369 1 0.5 0.75 0.333333
340 1 0.625 0.625 0.333333
344 1 0.6875 0.6875 0.375
377 1 0.75 0.75 0.333333
348 1 0.875 0.625 0.333333
352 1 0.9375 0.6875 0.375
356 1 0.125 0.875 0.333333
357 1 0.0625 0.8125 0.375
364 1 0.375 0.875 0.333333
365 1 0.3125 0.8125 0.375
373 1 0.5625 0.8125 0.375
372 1 0.625 0.875 0.333333
380 1 0.875 0.875 0.333333
381 1 0.8125 0.8125 0.375
360 1 0.1875 0.9375 0.375
368 1 0.4375 0.9375 0.375
376 1 0.6875 0.9375 0.375
384 1 0.9375 0.9375 0.375
258 1 0 0.125 0.416667
259 1 0.125 0 0.416667
263 1 0.1875 0.0625 0.458333
266 1 0.25 0.125 0.416667
267 1 0.375 0 0.416667
271 1 0.4375 0.0625 0.458333
274 1 0.5 0.125 0.416667
275 1 0.625 0 0.416667
279 1 0.6875 0.0625 0.458333
282 1 0.75 0.125 0.416667
283 1 0.875 0 0.416667
287 1 0.9375 0.0625 0.458333
262 1 0.0625 0.1875 0.458333
291 1 0.125 0.25 0.416667
270 1 0.3125 0.1875 0.458333
299 1 0.375 0.25 0.416667
278 1 0.5625 0.1875 0.458333
307 1 0.625 0.25 0.416667
286 1 0.8125 0.1875 0.458333
315 1 0.875 0.25 0.416667
290 1 0 0.375 0.416667
295 1 0.1875 0.3125 0.458333
298 1 0.25 0.375 0.416667
303 1 0.4375 0.3125 0.458333
306 1 0.5 0.375 0.416667
311 1 0.6875 0.3125 0.458333
314 1 0.75 0.375 0.416667
319 1 0.9375 0.3125 0.458333
294 1 0.0625 0.4375 0.458333
323 1 0.125 0.5 0.416667
302 1 0.3125 0.4375 0.458333
331 1 0.375 0.5 0.416667
310 1 0.5625 0.4375 0.458333
339 1 0.625 0.5 0.416667
318 1 0.8125 0.4375 0.458333
347 1 0.875 0.5 0.416667
327 1 0.1875 0.5625 0.458333
335 1 0.4375 0.5625 0.458333
343 1 0.6875 0.5625 0.458333
351 1 0.9375 0.5625 0.458333
322 1 0 0.625 0.416667
326 1 0.0625 0.6875 0.458333
355 1 0.125 0.75 0.416667
330 1 0.25 0.625 0.416667
334 1 0.3125 0.6875 0.458333
363 1 0.375 0.75 0.416667
338 1 0.5 0.625 0.416667
342 1 0.5625 0.6875 0.458333
346 1 0.75 0.625 0.416667
371 1 0.625 0.75 0.416667
350 1 0.8125 0.6875 0.458333
379 1 0.875 0.75 0.416667
354 1 0 0.875 0.416667
359 1 0.1875 0.8125 0.458333
362 1 0.25 0.875 0.416667
367 1 0.4375 0.8125 0.458333