ITEM: TIMESTEP
0
ITEM: NUMBER OF ATOMS
1387
ITEM: BOX BOUNDS pp pp pp
0.0000000000000000e+00 2.7149999999999999e+01
0.0000000000000000e+00 2.7149999999999999e+01
0.0000000000000000e+00 3.2579999999999998e+01
ITEM: ATOMS id type xs ys zs
1 1 0 0 0
2 1 0 0.0994475 0.0828729
3 1 0.0994475 0 0.0828729
4 1 0.0994475 0.0994475 0
5 1 0.0497238 0.0497238 0.0414365
9 1 0.198895 0 0
10 1 0.198895 0.0994475 0.0828729
11 1 0.298343 0 0.0828729
12 1 0.298343 0.0994475 0
13 1 0.248619 0.0497238 0.0414365
17 1 0.39779 0 0
18 1 0.39779 0.0994475 0.0828729
19 1 0.497238 0 0.0828729
20 1 0.497238 0.0994475 0
21 1 0.447514 0.0497238 0.0414365
25 1 0.596685 0 0
26 1 0.596685 0.0994475 0.0828729
27 1 0.696133 0 0.0828729
28 1 0.696133 0.0994475 0
29 1 0.646409 0.0497238 0.0414365
33 1 0.79558 0 0
34 1 0.79558 0.0994475 0.0828729
35 1 0.895028 0 0.0828729
36 1 0.895028 0.0994475 0
37 1 0.845304 0.0497238 0.0414365
41 1 0.994475 0 0
42 1 0.994475 0.0994475 0.0828729
43 1 0 0.198895 0
45 1 0.0994475 0.198895 0.0828729
8 1 0.149171 0.149171 0.0414365
51 1 0.198895 0.198895 0
53 1 0.298343 0.198895 0.0828729
16 1 0.348066 0.149171 0.0414365
59 1 0.39779 0.198895 0
61 1 0.497238 0.198895 0.0828729
24 1 0.546961 0.149171 0.0414365
67 1 0.596685 0.198895 0
69 1 0.696133 0.198895 0.0828729
32 1 0.745856 0.149171 0.0414365
75 1 0.79558 0.198895 0
77 1 0.895028 0.198895 0.0828729
40 1 0.944751 0.149171 0.0414365
83 1 0.994475 0.198895 0
44 1 0 0.298343 0.0828729
46 1 0.0994475 0.298343 0
47 1 0.0497238 0.248619 0.0414365
52 1 0.198895 0.298343 0.0828729
54 1 0.298343 0.298343 0
55 1 0.248619 0.248619 0.0414365
60 1 0.39779 0.298343 0.0828729
62 1 0.497238 0.298343 0
63 1 0.447514 0.248619 0.0414365
68 1 0.596685 0.298343 0.0828729
70 1 0.696133 0.298343 0
71 1 0.646409 0.248619 0.0414365
76 1 0.79558 0.298343 0.0828729
78 1 0.895028 0.298343 0
79 1 0.845304 0.248619 0.0414365
84 1 0.994475 0.298343 0.0828729
85 1 0 0.39779 0
87 1 0.0994475 0.39779 0.0828729
50 1 0.149171 0.348066 0.0414365
93 1 0.198895 0.39779 0
95 1 0.298343 0.39779 0.0828729
58 1 0.348066 0.348066 0.0414365
101 1 0.39779 0.39779 0
103 1 0.497238 0.39779 0.0828729
66 1 0.546961 0.348066 0.0414365
109 1 0.596685 0.39779 0
111 1 0.696133 0.39779 0.0828729
74 1 0.745856 0.348066 0.0414365
117 1 0.79558 0.39779 0
119 1 0.895028 0.39779 0.0828729
82 1 0.944751 0.348066 0.0414365
125 1 0.994475 0.39779 0
86 1 0 0.497238 0.0828729
88 1 0.0994475 0.497238 0
89 1 0.0497238 0.447514 0.0414365
94 1 0.198895 0.497238 0.0828729
96 1 0.298343 0.497238 0
97 1 0.248619 0.447514 0.0414365
102 1 0.39779 0.497238 0.0828729
104 1 0.497238 0.497238 0
105 1 0.447514 0.447514 0.0414365
110 1 0.596685 0.497238 0.0828729
112 1 0.696133 0.497238 0
113 1 0.646409 0.447514 0.0414365
118 1 0.79558 0.497238 0.0828729
120 1 0.895028 0.497238 0
121 1 0.845304 0.447514 0.0414365
126 1 0.994475 0.497238 0.0828729
127 1 0 0.596685 0
129 1 0.0994475 0.596685 0.0828729
92 1 0.149171 0.546961 0.0414365
135 1 0.198895 0.596685 0
137 1 0.298343 0.596685 0.0828729
100 1 0.348066 0.546961 0.0414365
143 1 0.39779 0.596685 0
145 1 0.497238 0.596685 0.0828729
108 1 0.546961 0.546961 0.0414365
151 1 0.596685 0.596685 0
153 1 0.696133 0.596685 0.0828729
116 1 0.745856 0.546961 0.0414365
159 1 0.79558 0.596685 0
161 1 0.895028 0.596685 0.0828729
124 1 0.944751 0.546961 0.0414365
167 1 0.994475 0.596685 0
128 1 0 0.696133 0.0828729
130 1 0.0994475 0.696133 0
131 1 0.0497238 0.646409 0.0414365
136 1 0.198895 0.696133 0.0828729
138 1 0.298343 0.696133 0
139 1 0.248619 0.646409 0.0414365
144 1 0.39779 0.696133 0.0828729
146 1 0.497238 0.696133 0
147 1 0.447514 0.646409 0.0414365
152 1 0.596685 0.696133 0.0828729
154 1 0.696133 0.696133 0
155 1 0.646409 0.646409 0.0414365
160 1 0.79558 0.696133 0.0828729
162 1 0.895028 0.696133 0
163 1 0.845304 0.646409 0.0414365
168 1 0.994475 0.696133 0.0828729
169 1 0 0.79558 0
171 1 0.0994475 0.79558 0.0828729
134 1 0.149171 0.745856 0.0414365
177 1 0.198895 0.79558 0
179 1 0.298343 0.79558 0.0828729
142 1 0.348066 0.745856 0.0414365
185 1 0.39779 0.79558 0
187 1 0.497238 0.79558 0.0828729
150 1 0.546961 0.745856 0.0414365
193 1 0.596685 0.79558 0
195 1 0.696133 0.79558 0.0828729
158 1 0.745856 0.745856 0.0414365
201 1 0.79558 0.79558 0
203 1 0.895028 0.79558 0.0828729
166 1 0.944751 0.745856 0.0414365
209 1 0.994475 0.79558 0
170 1 0 0.895028 0.0828729
172 1 0.0994475 0.895028 0
173 1 0.0497238 0.845304 0.0414365
178 1 0.198895 0.895028 0.0828729
180 1 0.298343 0.895028 0
181 1 0.248619 0.845304 0.0414365
186 1 0.39779 0.895028 0.0828729
188 1 0.497238 0.895028 0
189 1 0.447514 0.845304 0.0414365
194 1 0.596685 0.895028 0.0828729
196 1 0.696133 0.895028 0
197 1 0.646409 0.845304 0.0414365
202 1 0.79558 0.895028 0.0828729
204 1 0.895028 0.895028 0
205 1 0.845304 0.845304 0.0414365
210 1 0.994475 0.895028 0.0828729
211 1 0 0.994475 0
212 1 0.0994475 0.994475 0.0828729
176 1 0.149171 0.944751 0.0414365
213 1 0.198895 0.994475 0
214 1 0.298343 0.994475 0.0828729
184 1 0.348066 0.944751 0.0414365
215 1 0.39779 0.994475 0
216 1 0.497238 0.994475 0.0828729
192 1 0.546961 0.944751 0.0414365
217 1 0.596685 0.994475 0
218 1 0.696133 0.994475 0.0828729
200 1 0.745856 0.944751 0.0414365
219 1 0.79558 0.994475 0
220 1 0.895028 0.994475 0.0828729
208 1 0.944751 0.944751 0.0414365
221 1 0.994475 0.994475 0
222 1 0 0 0.165746
225 1 0.0994475 0.0994475 0.165746
7 1 0.149171 0.0497238 0.124309
230 1 0.198895 0 0.165746
233 1 0.298343 0.0994475 0.165746
15 1 0.348066 0.0497238 0.124309
238 1 0.39779 0 0.165746
241 1 0.497238 0.0994475 0.165746
23 1 0.546961 0.0497238 0.124309
246 1 0.596685 0 0.165746
249 1 0.696133 0.0994475 0.165746
31 1 0.745856 0.0497238 0.124309
254 1 0.79558 0 0.165746
257 1 0.895028 0.0994475 0.165746
39 1 0.944751 0.0497238 0.124309
262 1 0.994475 0 0.165746
6 1 0.0497238 0.149171 0.124309
264 1 0 0.198895 0.165746
272 1 0.198895 0.198895 0.165746
14 1 0.248619 0.149171 0.124309
280 1 0.39779 0.198895 0.165746
22 1 0.447514 0.149171 0.124309
288 1 0.596685 0.198895 0.165746
30 1 0.646409 0.149171 0.124309
296 1 0.79558 0.198895 0.165746
38 1 0.845304 0.149171 0.124309
304 1 0.994475 0.198895 0.165746
267 1 0.0994475 0.298343 0.165746
49 1 0.149171 0.248619 0.124309
275 1 0.298343 0.298343 0.165746
57 1 0.348066 0.248619 0.124309
283 1 0.497238 0.298343 0.165746
65 1 0.546961 0.248619 0.124309
291 1 0.696133 0.298343 0.165746
73 1 0.745856 0.248619 0.124309
299 1 0.895028 0.298343 0.165746
81 1 0.944751 0.248619 0.124309
48 1 0.0497238 0.348066 0.124309
306 1 0 0.39779 0.165746
314 1 0.198895 0.39779 0.165746
56 1 0.248619 0.348066 0.124309
322 1 0.39779 0.39779 0.165746
64 1 0.447514 0.348066 0.124309
330 1 0.596685 0.39779 0.165746
72 1 0.646409 0.348066 0.124309
338 1 0.79558 0.39779 0.165746
80 1 0.845304 0.348066 0.124309
346 1 0.994475 0.39779 0.165746
309 1 0.0994475 0.497238 0.165746
91 1 0.149171 0.447514 0.124309
317 1 0.298343 0.497238 0.165746
99 1 0.348066 0.447514 0.124309
325 1 0.497238 0.497238 0.165746
107 1 0.546961 0.447514 0.124309
333 1 0.696133 0.497238 0.165746
115 1 0.745856 0.447514 0.124309
341 1 0.895028 0.497238 0.165746
123 1 0.944751 0.447514 0.124309
90 1 0.0497238 0.546961 0.124309
348 1 0 0.596685 0.165746
356 1 0.198895 0.596685 0.165746
98 1 0.248619 0.546961 0.124309
364 1 0.39779 0.596685 0.165746
106 1 0.447514 0.546961 0.124309
372 1 0.596685 0.596685 0.165746
114 1 0.646409 0.546961 0.124309
380 1 0.79558 0.596685 0.165746
122 1 0.845304 0.546961 0.124309
388 1 0.994475 0.596685 0.165746
351 1 0.0994475 0.696133 0.165746
133 1 0.149171 0.646409 0.124309
359 1 0.298343 0.696133 0.165746
141 1 0.348066 0.646409 0.124309
367 1 0.497238 0.696133 0.165746
149 1 0.546961 0.646409 0.124309
375 1 0.696133 0.696133 0.165746
157 1 0.745856 0.646409 0.124309
383 1 0.895028 0.696133 0.165746
165 1 0.944751 0.646409 0.124309
132 1 0.0497238 0.745856 0.124309
390 1 0 0.79558 0.165746
398 1 0.198895 0.79558 0.165746
140 1 0.248619 0.745856 0.124309
406 1 0.39779 0.79558 0.165746
148 1 0.447514 0.745856 0.124309
414 1 0.596685 0.79558 0.165746
156 1 0.646409 0.745856 0.124309
422 1 0.79558 0.79558 0.165746
164 1 0.845304 0.745856 0.124309
430 1 0.994475 0.79558 0.165746
393 1 0.0994475 0.895028 0.165746
175 1 0.149171 0.845304 0.124309
401 1 0.298343 0.895028 0.165746
183 1 0.348066 0.845304 0.124309
409 1 0.497238 0.895028 0.165746
191 1 0.546961 0.845304 0.124309
417 1 0.696133 0.895028 0.165746
199 1 0.745856 0.845304 0.124309
425 1 0.895028 0.895028 0.165746
207 1 0.944751 0.845304 0.124309
174 1 0.0497238 0.944751 0.124309
432 1 0 0.994475 0.165746
434 1 0.198895 0.994475 0.165746
182 1 0.248619 0.944751 0.124309
436 1 0.39779 0.994475 0.165746
190 1 0.447514 0.944751 0.124309
438 1 0.596685 0.994475 0.165746
198 1 0.646409 0.944751 0.124309
440 1 0.79558 0.994475 0.165746
206 1 0.845304 0.944751 0.124309
442 1 0.994475 0.994475 0.165746
223 1 0 0.0994475 0.248619
224 1 0.0994475 0 0.248619
226 1 0.0497238 0.0497238 0.207182
231 1 0.198895 0.0994475 0.248619
232 1 0.298343 0 0.248619
234 1 0.248619 0.0497238 0.207182
239 1 0.39779 0.0994475 0.248619
240 1 0.497238 0 0.248619
242 1 0.447514 0.0497238 0.207182
247 1 0.596685 0.0994475 0.248619
248 1 0.696133 0 0.248619
250 1 0.646409 0.0497238 0.207182
255 1 0.79558 0.0994475 0.248619
256 1 0.895028 0 0.248619
258 1 0.845304 0.0497238 0.207182
263 1 0.994475 0.0994475 0.248619
266 1 0.0994475 0.198895 0.248619
229 1 0.149171 0.149171 0.207182
274 1 0.298343 0.198895 0.248619
237 1 0.348066 0.149171 0.207182
282 1 0.497238 0.198895 0.248619
245 1 0.546961 0.149171 0.207182
290 1 0.696133 0.198895 0.248619
253 1 0.745856 0.149171 0.207182
298 1 0.895028 0.198895 0.248619
261 1 0.944751 0.149171 0.207182
265 1 0 0.298343 0.248619
268 1 0.0497238 0.248619 0.207182
273 1 0.198895 0.298343 0.248619
276 1 0.248619 0.248619 0.207182
281 1 0.39779 0.298343 0.248619
284 1 0.447514 0.248619 0.207182
289 1 0.596685 0.298343 0.248619
292 1 0.646409 0.248619 0.207182
297 1 0.79558 0.298343 0.248619
300 1 0.845304 0.248619 0.207182
305 1 0.994475 0.298343 0.248619
308 1 0.0994475 0.39779 0.248619
271 1 0.149171 0.348066 0.207182
316 1 0.298343 0.39779 0.248619
279 1 0.348066 0.348066 0.207182
324 1 0.497238 0.39779 0.248619
287 1 0.546961 0.348066 0.207182
332 1 0.696133 0.39779 0.248619
295 1 0.745856 0.348066 0.207182
340 1 0.895028 0.39779 0.248619
303 1 0.944751 0.348066 0.207182
307 1 0 0.497238 0.248619
310 1 0.0497238 0.447514 0.207182
315 1 0.198895 0.497238 0.248619
318 1 0.248619 0.447514 0.207182
323 1 0.39779 0.497238 0.248619
326 1 0.447514 0.447514 0.207182
331 1 0.596685 0.497238 0.248619
334 1 0.646409 0.447514 0.207182
339 1 0.79558 0.497238 0.248619
342 1 0.845304 0.447514 0.207182
347 1 0.994475 0.497238 0.248619
350 1 0.0994475 0.596685 0.248619
313 1 0.149171 0.546961 0.207182
358 1 0.298343 0.596685 0.248619
321 1 0.348066 0.546961 0.207182
366 1 0.497238 0.596685 0.248619
329 1 0.546961 0.546961 0.207182
374 1 0.696133 0.596685 0.248619
337 1 0.745856 0.546961 0.207182
382 1 0.895028 0.596685 0.248619
345 1 0.944751 0.546961 0.207182
349 1 0 0.696133 0.248619
352 1 0.0497238 0.646409 0.207182
357 1 0.198895 0.696133 0.248619
360 1 0.248619 0.646409 0.207182
365 1 0.39779 0.696133 0.248619
368 1 0.447514 0.646409 0.207182
373 1 0.596685 0.696133 0.248619
376 1 0.646409 0.646409 0.207182
381 1 0.79558 0.696133 0.248619
384 1 0.845304 0.646409 0.207182
389 1 0.994475 0.696133 0.248619
392 1 0.0994475 0.79558 0.248619
355 1 0.149171 0.745856 0.207182
400 1 0.298343 0.79558 0.248619
363 1 0.348066 0.745856 0.207182
408 1 0.497238 0.79558 0.248619
371 1 0.546961 0.745856 0.207182
416 1 0.696133 0.79558 0.248619
379 1 0.745856 0.745856 0.207182
424 1 0.895028 0.79558 0.248619
387 1 0.944751 0.745856 0.207182
391 1 0 0.895028 0.248619
394 1 0.0497238 0.845304 0.207182
399 1 0.198895 0.895028 0.248619
402 1 0.248619 0.845304 0.207182
407 1 0.39779 0.895028 0.248619
410 1 0.447514 0.845304 0.207182
415 1 0.596685 0.895028 0.248619
418 1 0.646409 0.845304 0.207182
423 1 0.79558 0.895028 0.248619
426 1 0.845304 0.845304 0.207182
431 1 0.994475 0.895028 0.248619
433 1 0.0994475 0.994475 0.248619
397 1 0.149171 0.944751 0.207182
435 1 0.298343 0.994475 0.248619
405 1 0.348066 0.944751 0.207182
437 1 0.497238 0.994475 0.248619
413 1 0.546961 0.944751 0.207182
439 1 0.696133 0.994475 0.248619
421 1 0.745856 0.944751 0.207182
441 1 0.895028 0.994475 0.248619
429 1 0.944751 0.944751 0.207182
443 1 0 0 0.331492
446 1 0.0994475 0.0994475 0.331492
228 1 0.149171 0.0497238 0.290055
451 1 0.198895 0 0.331492
454 1 0.298343 0.0994475 0.331492
236 1 0.348066 0.0497238 0.290055
459 1 0.39779 0 0.331492
462 1 0.497238 0.0994475 0.331492
244 1 0.546961 0.0497238 0.290055
467 1 0.596685 0 0.331492
470 1 0.696133 0.0994475 0.331492
252 1 0.745856 0.0497238 0.290055
475 1 0.79558 0 0.331492
478 1 0.895028 0.0994475 0.331492
260 1 0.944751 0.0497238 0.290055
483 1 0.994475 0 0.331492
227 1 0.0497238 0.149171 0.290055
485 1 0 0.198895 0.331492
493 1 0.198895 0.198895 0.331492
235 1 0.248619 0.149171 0.290055
501 1 0.39779 0.198895 0.331492
243 1 0.447514 0.149171 0.290055
509 1 0.596685 0.198895 0.331492
251 1 0.646409 0.149171 0.290055
517 1 0.79558 0.198895 0.331492
259 1 0.845304 0.149171 0.290055
525 1 0.994475 0.198895 0.331492
488 1 0.0994475 0.298343 0.331492
270 1 0.149171 0.248619 0.290055
496 1 0.298343 0.298343 0.331492
278 1 0.348066 0.248619 0.290055
504 1 0.497238 0.298343 0.331492
286 1 0.546961 0.248619 0.290055
512 1 0.696133 0.298343 0.331492
294 1 0.745856 0.248619 0.290055
520 1 0.895028 0.298343 0.331492
302 1 0.944751 0.248619 0.290055
269 1 0.0497238 0.348066 0.290055
527 1 0 0.39779 0.331492
535 1 0.198895 0.39779 0.331492
277 1 0.248619 0.348066 0.290055
543 1 0.39779 0.39779 0.331492
285 1 0.447514 0.348066 0.290055
551 1 0.596685 0.39779 0.331492
293 1 0.646409 0.348066 0.290055
559 1 0.79558 0.39779 0.331492
301 1 0.845304 0.348066 0.290055
567 1 0.994475 0.39779 0.331492
530 1 0.0994475 0.497238 0.331492
312 1 0.149171 0.447514 0.290055
538 1 0.298343 0.497238 0.331492
320 1 0.348066 0.447514 0.290055
546 1 0.497238 0.497238 0.331492
328 1 0.546961 0.447514 0.290055
554 1 0.696133 0.497238 0.331492
336 1 0.745856 0.447514 0.290055
562 1 0.895028 0.497238 0.331492
344 1 0.944751 0.447514 0.290055
311 1 0.0497238 0.546961 0.290055
569 1 0 0.596685 0.331492
577 1 0.198895 0.596685 0.331492
319 1 0.248619 0.546961 0.290055
585 1 0.39779 0.596685 0.331492
327 1 0.447514 0.546961 0.290055
593 1 0.596685 0.596685 0.331492
335 1 0.646409 0.546961 0.290055
601 1 0.79558 0.596685 0.331492
343 1 0.845304 0.546961 0.290055
609 1 0.994475 0.596685 0.331492
572 1 0.0994475 0.696133 0.331492
354 1 0.149171 0.646409 0.290055
580 1 0.298343 0.696133 0.331492
362 1 0.348066 0.646409 0.290055
588 1 0.497238 0.696133 0.331492
370 1 0.546961 0.646409 0.290055
596 1 0.696133 0.696133 0.331492
378 1 0.745856 0.646409 0.290055
604 1 0.895028 0.696133 0.331492
386 1 0.944751 0.646409 0.290055
353 1 0.0497238 0.745856 0.290055
611 1 0 0.79558 0.331492
619 1 0.198895 0.79558 0.331492
361 1 0.248619 0.745856 0.290055
627 1 0.39779 0.79558 0.331492
369 1 0.447514 0.745856 0.290055
635 1 0.596685 0.79558 0.331492
377 1 0.646409 0.745856 0.290055
643 1 0.79558 0.79558 0.331492
385 1 0.845304 0.745856 0.290055
651 1 0.994475 0.79558 0.331492
614 1 0.0994475 0.895028 0.331492
396 1 0.149171 0.845304 0.290055
622 1 0.298343 0.895028 0.331492
404 1 0.348066 0.845304 0.290055
630 1 0.497238 0.895028 0.331492
412 1 0.546961 0.845304 0.290055
638 1 0.696133 0.895028 0.331492
420 1 0.745856 0.845304 0.290055
646 1 0.895028 0.895028 0.331492
428 1 0.944751 0.845304 0.290055
395 1 0.0497238 0.944751 0.290055
653 1 0 0.994475 0.331492
655 1 0.198895 0.994475 0.331492
403 1 0.248619 0.944751 0.290055
657 1 0.39779 0.994475 0.331492
411 1 0.447514 0.944751 0.290055
659 1 0.596685 0.994475 0.331492
419 1 0.646409 0.944751 0.290055
661 1 0.79558 0.994475 0.331492
427 1 0.845304 0.944751 0.290055
663 1 0.994475 0.994475 0.331492
444 1 0 0.0994475 0.414365
445 1 0.0994475 0 0.414365
447 1 0.0497238 0.0497238 0.372928
452 1 0.198895 0.0994475 0.414365
453 1 0.298343 0 0.414365
455 1 0.248619 0.0497238 0.372928
460 1 0.39779 0.0994475 0.414365
461 1 0.497238 0 0.414365
463 1 0.447514 0.0497238 0.372928
468 1 0.596685 0.0994475 0.414365
469 1 0.696133 0 0.414365
471 1 0.646409 0.0497238 0.372928
476 1 0.79558 0.0994475 0.414365
477 1 0.895028 0 0.414365
479 1 0.845304 0.0497238 0.372928
484 1 0.994475 0.0994475 0.414365
487 1 0.0994475 0.198895 0.414365
450 1 0.149171 0.149171 0.372928
495 1 0.298343 0.198895 0.414365
458 1 0.348066 0.149171 0.372928
503 1 0.497238 0.198895 0.414365
466 1 0.546961 0.149171 0.372928
511 1 0.696133 0.198895 0.414365
474 1 0.745856 0.149171 0.372928
519 1 0.895028 0.198895 0.414365
482 1 0.944751 0.149171 0.372928
486 1 0 0.298343 0.414365
489 1 0.0497238 0.248619 0.372928
494 1 0.198895 0.298343 0.414365
497 1 0.248619 0.248619 0.372928
502 1 0.39779 0.298343 0.414365
505 1 0.447514 0.248619 0.372928
510 1 0.596685 0.298343 0.414365
513 1 0.646409 0.248619 0.372928
518 1 0.79558 0.298343 0.414365
521 1 0.845304 0.248619 0.372928
526 1 0.994475 0.298343 0.414365
529 1 0.0994475 0.39779 0.414365
492 1 0.149171 0.348066 0.372928
537 1 0.298343 0.39779 0.414365
500 1 0.348066 0.348066 0.372928
545 1 0.497238 0.39779 0.414365
508 1 0.546961 0.348066 0.372928
553 1 0.696133 0.39779 0.414365
516 1 0.745856 0.348066 0.372928
561 1 0.895028 0.39779 0.414365
524 1 0.944751 0.348066 0.372928
528 1 0 0.497238 0.414365
531 1 0.0497238 0.447514 0.372928
536 1 0.198895 0.497238 0.414365
539 1 0.248619 0.447514 0.372928
544 1 0.39779 0.497238 0.414365
547 1 0.447514 0.447514 0.372928
552 1 0.596685 0.497238 0.414365
555 1 0.646409 0.447514 0.372928
560 1 0.79558 0.497238 0.414365
563 1 0.845304 0.447514 0.372928
568 1 0.994475 0.497238 0.414365
571 1 0.0994475 0.596685 0.414365
534 1 0.149171 0.546961 0.372928
579 1 0.298343 0.596685 0.414365
542 1 0.348066 0.546961 0.372928
587 1 0.497238 0.596685 0.414365
550 1 0.546961 0.546961 0.372928
595 1 0.696133 0.596685 0.414365
558 1 0.745856 0.546961 0.372928
603 1 0.895028 0.596685 0.414365
566 1 0.944751 0.546961 0.372928
570 1 0 0.696133 0.414365
573 1 0.0497238 0.646409 0.372928
578 1 0.198895 0.696133 0.414365
581 1 0.248619 0.646409 0.372928
586 1 0.39779 0.696133 0.414365
589 1 0.447514 0.646409 0.372928
594 1 0.596685 0.696133 0.414365
597 1 0.646409 0.646409 0.372928
602 1 0.79558 0.696133 0.414365
605 1 0.845304 0.646409 0.372928
610 1 0.994475 0.696133 0.414365
613 1 0.0994475 0.79558 0.414365
576 1 0.149171 0.745856 0.372928
621 1 0.298343 0.79558 0.414365
584 1 0.348066 0.745856 0.372928
629 1 0.497238 0.79558 0.414365
592 1 0.546961 0.745856 0.372928
637 1 0.696133 0.79558 0.414365
600 1 0.745856 0.745856 0.372928
645 1 0.895028 0.79558 0.414365
608 1 0.944751 0.745856 0.372928
612 1 0 0.895028 0.414365
615 1 0.0497238 0.845304 0.372928
620 1 0.198895 0.895028 0.414365
623 1 0.248619 0.845304 0.372928
628 1 0.39779 0.895028 0.414365
631 1 0.447514 0.845304 0.372928
636 1 0.596685 0.895028 0.414365
639 1 0.646409 0.845304 0.372928
644 1 0.79558 0.895028 0.414365
647 1 0.845304 0.845304 0.372928
652 1 0.994475 0.895028 0.414365
654 1 0.0994475 0.994475 0.414365
618 1 0.149171 0.944751 0.372928
656 1 0.298343 0.994475 0.414365
626 1 0.348066 0.944751 0.372928
658 1 0.497238 0.994475 0.414365
634 1 0.546961 0.944751 0.372928
660 1 0.696133 0.994475 0.414365
642 1 0.745856 0.944751 0.372928
662 1 0.895028 0.994475 0.414365
650 1 0.944751 0.944751 0.372928
664 1 0 0 0.497238
667 1 0.0994475 0.0994475 0.497238
449 1 0.149171 0.0497238 0.455801
672 1 0.198895 0 0.497238
675 1 0.298343 0.0994475 0.497238
457 1 0.348066 0.0497238 0.455801
680 1 0.39779 0 0.497238
683 1 0.497238 0.0994475 0.497238
465 1 0.546961 0.0497238 0.455801
688 1 0.596685 0 0.497238
691 1 0.696133 0.0994475 0.497238
473 1 0.745856 0.0497238 0.455801
696 1 0.79558 0 0.497238
699 1 0.895028 0.0994475 0.497238
481 1 0.944751 0.0497238 0.455801
704 1 0.994475 0 0.497238
448 1 0.0497238 0.149171 0.455801
706 1 0 0.198895 0.497238
714 1 0.198895 0.198895 0.497238
456 1 0.248619 0.149171 0.455801
722 1 0.39779 0.198895 0.497238
464 1 0.447514 0.149171 0.455801
730 1 0.596685 0.198895 0.497238
472 1 0.646409 0.149171 0.455801
738 1 0.79558 0.198895 0.497238
480 1 0.845304 0.149171 0.455801
746 1 0.994475 0.198895 0.497238
709 1 0.0994475 0.298343 0.497238
491 1 0.149171 0.248619 0.455801
717 1 0.298343 0.298343 0.497238
499 1 0.348066 0.248619 0.455801
725 1 0.497238 0.298343 0.497238
507 1 0.546961 0.248619 0.455801
733 1 0.696133 0.298343 0.497238
515 1 0.745856 0.248619 0.455801
741 1 0.895028 0.298343 0.497238
523 1 0.944751 0.248619 0.455801
490 1 0.0497238 0.348066 0.455801
748 1 0 0.39779 0.497238
756 1 0.198895 0.39779 0.497238
498 1 0.248619 0.348066 0.455801
764 1 0.39779 0.39779 0.497238
506 1 0.447514 0.348066 0.455801
772 1 0.596685 0.39779 0.497238
514 1 0.646409 0.348066 0.455801
780 1 0.79558 0.39779 0.497238
522 1 0.845304 0.348066 0.455801
788 1 0.994475 0.39779 0.497238
751 1 0.0994475 0.497238 0.497238
533 1 0.149171 0.447514 0.455801
759 1 0.298343 0.497238 0.497238
541 1 0.348066 0.447514 0.455801
767 1 0.497238 0.497238 0.497238
549 1 0.546961 0.447514 0.455801
775 1 0.696133 0.497238 0.497238
557 1 0.745856 0.447514 0.455801
783 1 0.895028 0.497238 0.497238
565 1 0.944751 0.447514 0.455801
532 1 0.0497238 0.546961 0.455801
790 1 0 0.596685 0.497238
798 1 0.198895 0.596685 0.497238
540 1 0.248619 0.546961 0.455801
806 1 0.39779 0.596685 0.497238
548 1 0.447514 0.546961 0.455801
814 1 0.596685 0.596685 0.497238
556 1 0.646409 0.546961 0.455801
822 1 0.79558 0.596685 0.497238
564 1 0.845304 0.546961 0.455801
830 1 0.994475 0.596685 0.497238
793 1 0.0994475 0.696133 0.497238
575 1 0.149171 0.646409 0.455801
801 1 0.298343 0.696133 0.497238
583 1 0.348066 0.646409 0.455801
809 1 0.497238 0.696133 0.497238
591 1 0.546961 0.646409 0.455801
817 1 0.696133 0.696133 0.497238
599 1 0.745856 0.646409 0.455801
825 1 0.895028 0.696133 0.497238
607 1 0.944751 0.646409 0.455801
574 1 0.0497238 0.745856 0.455801
832 1 0 0.79558 0.497238
840 1 0.198895 0.79558 0.497238
582 1 0.248619 0.745856 0.455801
848 1 0.39779 0.79558 0.497238
590 1 0.447514 0.745856 0.455801
856 1 0.596685 0.79558 0.497238
598 1 0.646409 0.745856 0.455801
864 1 0.79558 0.79558 0.497238
606 1 0.845304 0.745856 0.455801
872 1 0.994475 0.79558 0.497238
835 1 0.0994475 0.895028 0.497238
617 1 0.149171 0.845304 0.455801
843 1 0.298343 0.895028 0.497238
625 1 0.348066 0.845304 0.455801
851 1 0.497238 0.895028 0.497238
633 1 0.546961 0.845304 0.455801
859 1 0.696133 0.895028 0.497238
641 1 0.745856 0.845304 0.455801
867 1 0.895028 0.895028 0.497238
649 1 0.944751 0.845304 0.455801
616 1 0.0497238 0.944751 0.455801
874 1 0 0.994475 0.497238
876 1 0.198895 0.994475 0.497238
624 1 0.248619 0.944751 0.455801
878 1 0.39779 0.994475 0.497238
632 1 0.447514 0.944751 0.455801
880 1 0.596685 0.994475 0.497238
640 1 0.646409 0.944751 0.455801
882 1 0.79558 0.994475 0.497238
648 1 0.845304 0.944751 0.455801
884 1 0.994475 0.994475 0.497238
665 1 0 0.0994475 0.58011
666 1 0.0994475 0 0.58011
668 1 0.0497238 0.0497238 0.538674
673 1 0.198895 0.0994475 0.58011
674 1 0.298343 0 0.58011
676 1 0.248619 0.0497238 0.538674
681 1 0.39779 0.0994475 0.58011
682 1 0.497238 0 0.58011
684 1 0.447514 0.0497238 0.538674
689 1 0.596685 0.0994475 0.58011
690 1 0.696133 0 0.58011
692 1 0.646409 0.0497238 0.538674
697 1 0.79558 0.0994475 0.58011
698 1 0.895028 0 0.58011
700 1 0.845304 0.0497238 0.538674
705 1 0.994475 0.0994475 0.58011
708 1 0.0994475 0.198895 0.58011
671 1 0.149171 0.149171 0.538674
716 1 0.298343 0.198895 0.58011
679 1 0.348066 0.149171 0.538674
724 1 0.497238 0.198895 0.58011
687 1 0.546961 0.149171 0.538674
732 1 0.696133 0.198895 0.58011
695 1 0.745856 0.149171 0.538674
740 1 0.895028 0.198895 0.58011
703 1 0.944751 0.149171 0.538674
707 1 0 0.298343 0.58011
710 1 0.0497238 0.248619 0.538674
715 1 0.198895 0.298343 0.58011
718 1 0.248619 0.248619 0.538674
723 1 0.39779 0.298343 0.58011
726 1 0.447514 0.248619 0.538674
731 1 0.596685 0.298343 0.58011
734 1 0.646409 0.248619 0.538674
739 1 0.79558 0.298343 0.58011
742 1 0.845304 0.248619 0.538674
747 1 0.994475 0.298343 0.58011
750 1 0.0994475 0.39779 0.58011
713 1 0.149171 0.348066 0.538674
758 1 0.298343 0.39779 0.58011
721 1 0.348066 0.348066 0.538674
766 1 0.497238 0.39779 0.58011
729 1 0.546961 0.348066 0.538674
774 1 0.696133 0.39779 0.58011
737 1 0.745856 0.348066 0.538674
782 1 0.895028 0.39779 0.58011
745 1 0.944751 0.348066 0.538674
749 1 0 0.497238 0.58011
752 1 0.0497238 0.447514 0.538674
757 1 0.198895 0.497238 0.58011
760 1 0.248619 0.447514 0.538674
765 1 0.39779 0.497238 0.58011
768 1 0.447514 0.447514 0.538674
773 1 0.596685 0.497238 0.58011
776 1 0.646409 0.447514 0.538674
781 1 0.79558 0.497238 0.58011
784 1 0.845304 0.447514 0.538674
789 1 0.994475 0.497238 0.58011
792 1 0.0994475 0.596685 0.58011
755 1 0.149171 0.546961 0.538674
800 1 0.298343 0.596685 0.58011
763 1 0.348066 0.546961 0.538674
808 1 0.497238 0.596685 0.58011
771 1 0.546961 0.546961 0.538674
816 1 0.696133 0.596685 0.58011
779 1 0.745856 0.546961 0.538674
824 1 0.895028 0.596685 0.58011
787 1 0.944751 0.546961 0.538674
791 1 0 0.696133 0.58011
794 1 0.0497238 0.646409 0.538674
799 1 0.198895 0.696133 0.58011
802 1 0.248619 0.646409 0.538674
807 1 0.39779 0.696133 0.58011
810 1 0.447514 0.646409 0.538674
815 1 0.596685 0.696133 0.58011
818 1 0.646409 0.646409 0.538674
823 1 0.79558 0.696133 0.58011
826 1 0.845304 0.646409 0.538674
831 1 0.994475 0.696133 0.58011
834 1 0.0994475 0.79558 0.58011
797 1 0.149171 0.745856 0.538674
842 1 0.298343 0.79558 0.58011
805 1 0.348066 0.745856 0.538674
850 1 0.497238 0.79558 0.58011
813 1 0.546961 0.745856 0.538674
858 1 0.696133 0.79558 0.58011
821 1 0.745856 0.745856 0.538674
866 1 0.895028 0.79558 0.58011
829 1 0.944751 0.745856 0.538674
833 1 0 0.895028 0.58011
836 1 0.0497238 0.845304 0.538674
841 1 0.198895 0.895028 0.58011
844 1 0.248619 0.845304 0.538674
849 1 0.39779 0.895028 0.58011
852 1 0.447514 0.845304 0.538674
857 1 0.596685 0.895028 0.58011
860 1 0.646409 0.845304 0.538674
865 1 0.79558 0.895028 0.58011
868 1 0.845304 0.845304 0.538674
873 1 0.994475 0.895028 0.58011
875 1 0.0994475 0.994475 0.58011
839 1 0.149171 0.944751 0.538674
877 1 0.298343 0.994475 0.58011
847 1 0.348066 0.944751 0.538674
879 1 0.497238 0.994475 0.58011
855 1 0.546961 0.944751 0.538674
881 1 0.696133 0.994475 0.58011
863 1 0.745856 0.944751 0.538674
883 1 0.895028 0.994475 0.58011
871 1 0.944751 0.944751 0.538674
885 1 0 0 0.662983
888 1 0.0994475 0.0994475 0.662983
670 1 0.149171 0.0497238 0.621547
893 1 0.198895 0 0.662983
896 1 0.298343 0.0994475 0.662983
678 1 0.348066 0.0497238 0.621547
901 1 0.39779 0 0.662983
904 1 0.497238 0.0994475 0.662983
686 1 0.546961 0.0497238 0.621547
909 1 0.596685 0 0.662983
912 1 0.696133 0.0994475 0.662983
694 1 0.745856 0.0497238 0.621547
917 1 0.79558 0 0.662983
920 1 0.895028 0.0994475 0.662983
702 1 0.944751 0.0497238 0.621547
925 1 0.994475 0 0.662983
669 1 0.0497238 0.149171 0.621547
927 1 0 0.198895 0.662983
935 1 0.198895 0.198895 0.662983
677 1 0.248619 0.149171 0.621547
943 1 0.39779 0.198895 0.662983
685 1 0.447514 0.149171 0.621547
951 1 0.596685 0.198895 0.662983
693 1 0.646409 0.149171 0.621547
959 1 0.79558 0.198895 0.662983
701 1 0.845304 0.149171 0.621547
967 1 0.994475 0.198895 0.662983
930 1 0.0994475 0.298343 0.662983
712 1 0.149171 0.248619 0.621547
938 1 0.298343 0.298343 0.662983
720 1 0.348066 0.248619 0.621547
946 1 0.497238 0.298343 0.662983
728 1 0.546961 0.248619 0.621547
954 1 0.696133 0.298343 0.662983
736 1 0.745856 0.248619 0.621547
962 1 0.895028 0.298343 0.662983
744 1 0.944751 0.248619 0.621547
711 1 0.0497238 0.348066 0.621547
969 1 0 0.39779 0.662983
977 1 0.198895 0.39779 0.662983
719 1 0.248619 0.348066 0.621547
985 1 0.39779 0.39779 0.662983
727 1 0.447514 0.348066 0.621547
993 1 0.596685 0.39779 0.662983
735 1 0.646409 0.348066 0.621547
1001 1 0.79558 0.39779 0.662983
743 1 0.845304 0.348066 0.621547
1009 1 0.994475 0.39779 0.662983
972 1 0.0994475 0.497238 0.662983
754 1 0.149171 0.447514 0.621547
980 1 0.298343 0.497238 0.662983
762 1 0.348066 0.447514 0.621547
988 1 0.497238 0.497238 0.662983
770 1 0.546961 0.447514 0.621547
996 1 0.696133 0.497238 0.662983
778 1 0.745856 0.447514 0.621547
1004 1 0.895028 0.497238 0.662983
786 1 0.944751 0.447514 0.621547
753 1 0.0497238 0.546961 0.621547
1011 1 0 0.596685 0.662983
1019 1 0.198895 0.596685 0.662983
761 1 0.248619 0.546961 0.621547
1027 1 0.39779 0.596685 0.662983
769 1 0.447514 0.546961 0.621547
1035 1 0.596685 0.596685 0.662983
777 1 0.646409 0.546961 0.621547
1043 1 0.79558 0.596685 0.662983
785 1 0.845304 0.546961 0.621547
1051 1 0.994475 0.596685 0.662983
1014 1 0.0994475 0.696133 0.662983
796 1 0.149171 0.646409 0.621547
1022 1 0.298343 0.696133 0.662983
804 1 0.348066 0.646409 0.621547
1030 1 0.497238 0.696133 0.662983
812 1 0.546961 0.646409 0.621547
1038 1 0.696133 0.696133 0.662983
820 1 0.745856 0.646409 0.621547
1046 1 0.895028 0.696133 0.662983
828 1 0.944751 0.646409 0.621547
795 1 0.0497238 0.745856 0.621547
1053 1 0 0.79558 0.662983
1061 1 0.198895 0.79558 0.662983
803 1 0.248619 0.745856 0.621547
1069 1 0.39779 0.79558 0.662983
811 1 0.447514 0.745856 0.621547
1077 1 0.596685 0.79558 0.662983
819 1 0.646409 0.745856 0.621547
1085 1 0.79558 0.79558 0.662983
827 1 0.845304 0.745856 0.621547
1093 1 0.994475 0.79558 0.662983
1056 1 0.0994475 0.895028 0.662983
838 1 0.149171 0.845304 0.621547
1064 1 0.298343 0.895028 0.662983
846 1 0.348066 0.845304 0.621547
1072 1 0.497238 0.895028 0.662983
854 1 0.546961 0.845304 0.621547
1080 1 0.696133 0.895028 0.662983
862 1 0.745856 0.845304 0.621547
1088 1 0.895028 0.895028 0.662983
870 1 0.944751 0.845304 0.621547
837 1 0.0497238 0.944751 0.621547
1095 1 0 0.994475 0.662983
1097 1 0.198895 0.994475 0.662983