LAMMPS (24 Jan 2020)
OMP_NUM_THREADS environment is not set. Defaulting to 1 thread. (src/comm.cpp:94)
  using 1 OpenMP thread(s) per MPI task
# ---------Initialize Simulation---------
clear
OMP_NUM_THREADS environment is not set. Defaulting to 1 thread. (src/comm.cpp:94)
  using 1 OpenMP thread(s) per MPI task
units 		metal
dimension 	3
boundary 	p p p   #p indicates that the boundary (x,y,z) is periodic  s is shrink-wrapped
atom_style 	atomic
atom_modify 	map array

# ---------Create Atoms-------------------
# Si is a diamond lattice
# lattice constant: 5.5 AA

lattice diamond 5.43
Lattice spacing in x,y,z = 5.43 5.43 5.43
region 		FULLBOX block 0 10 0 10 0 12 units lattice
region 		FIXEDHALF block 0 3 0 3 0 1 units lattice
region 		MOBILEHALF block 0 3 0 3 1 4 units lattice
region		PUREAMORPHOUS block 0 3 0 3 1.5 3.5 units lattice
region 		ATOMICBOX union 2 FIXEDHALF MOBILEHALF
create_box 	1 ATOMICBOX
Created orthogonal box = (0 0 0) to (16.29 16.29 21.72)
  1 by 1 by 1 MPI processor grid

lattice diamond 5.43 orient x 1 0 0 orient y 0 1 0 orient z 0  0 1
Lattice spacing in x,y,z = 5.43 5.43 5.43
mass 		1 28.0855
create_atoms 	1 region ATOMICBOX
Created 288 atoms
  create_atoms CPU = 0.000362604 secs
group 		fixedatoms region FIXEDHALF
90 atoms in group fixedatoms
group 		mobileatoms region MOBILEHALF
216 atoms in group mobileatoms
group		puremobile region PUREAMORPHOUS
162 atoms in group puremobile

# ----------Define interatomic potential --------------
#pair_style 	tersoff
#pair_coeff 	* * SiH_DUG_TersoffPRB.tersoff Si
#pair_coeff	* * potentials/Si.tersoff Si
#pair_coeff 	* * potentials/SiCGe.tersoff Si(D)
pair_style	tersoff/mod/c
pair_coeff	* * potentials/Si.tersoff.modc Si
Reading potential file potentials/Si.tersoff.modc with DATE: 2016-11-09
#neighbor 	4.0 bin
#neigh_modify 	delay 10 check yes

# ---------Define Potential Energy Outputs for Excess Energy Calculation --------------
compute		pe_aSi mobileatoms pe/atom
compute		pe_aSitotal mobileatoms reduce sum c_pe_aSi
variable	pe_aSiAverage equal c_pe_aSitotal/count(mobileatoms)

compute		pe_cSi fixedatoms pe/atom
compute		pe_cSitotal fixedatoms reduce sum c_pe_cSi
variable	pe_cSiAverage equal c_pe_cSitotal/count(fixedatoms)

compute		pe_aSi_pure puremobile pe/atom
compute		pe_aSi_puretotal puremobile reduce sum c_pe_aSi_pure
variable	pe_aSi_pureAverage equal c_pe_aSi_puretotal/count(puremobile)

variable	excessEnergy equal v_pe_aSiAverage-v_pe_cSiAverage
fix		pe_output all ave/time 100 5 10000 v_pe_aSiAverage v_pe_cSiAverage v_pe_aSi_pureAverage v_excessEnergy file potentialEnergy.output


# ----------Dump xyz file with atoms and bonds -----------
# Read with Ovito or jmol
dump 		1 all atom 1000 cSi.xyz
#dump_modify 	1 element Si

# ------- Initialize conditions ----------
#set initial temperature to be 100K
velocity 	mobileatoms create 2600.0 15046 mom yes rot yes dist gaussian  # mom and rot yes means net linear and angular momentum is zero
timestep 	.0001

#mod/c will melt 1-3 ratio at 2500K

# ------- Display conditions each 1000 step
thermo_style 	custom step temp pe ke etotal lz
thermo 		100

# --------Run simulation -------------
#Stabilize the simulation at 2200K
#fix		1 mobileatoms nvt temp 2000.0 2000.0 0.1
fix		1 mobileatoms langevin 2600.0 2600.0 0.1 15046
fix		2 mobileatoms nve
run		150000
Neighbor list info ...
  update every 1 steps, delay 10 steps, check yes
  max neighbors/atom: 2000, page size: 100000
  master list distance cutoff = 5.20569
  ghost atom cutoff = 5.20569
  binsize = 2.60285, bins = 7 7 9
  1 neighbor lists, perpetual/occasional/extra = 1 0 0
  (1) pair tersoff/mod/c, perpetual
      attributes: full, newton on
      pair build: full/bin/atomonly
      stencil: full/bin/3d
      bin: standard
Per MPI rank memory allocation (min/avg/max) = 4.223 | 4.223 | 4.223 Mbytes
Step Temp PotEng KinEng TotEng Lz 
       0    1947.7352    -1333.433    72.256421   -1261.1766        21.72 
     100    1111.7001   -1300.8765    41.241475    -1259.635        21.72 
     200    941.76008   -1285.1578    34.937097   -1250.2207        21.72 
     300    1243.7022    -1291.198    46.138443   -1245.0596        21.72 
     400    1180.7606   -1285.0491    43.803456   -1241.2456        21.72 
     500    1048.0712   -1275.2323    38.880991   -1236.3514        21.72 
     600    1255.0983   -1276.1941    46.561212   -1229.6329        21.72 
     700    1199.3687   -1269.2795    44.493775   -1224.7857        21.72 
     800    1286.3374   -1268.9331    47.720108    -1221.213        21.72 
     900    1400.2359   -1269.4875    51.945479    -1217.542        21.72 
    1000    1329.8947   -1262.9707    49.335985   -1213.6347        21.72 
    1100    1355.2547   -1262.5866     50.27678   -1212.3098        21.72 
    1200    1598.6996    -1265.509    59.308018   -1206.2009        21.72 
    1300    1548.9297   -1265.8963    57.461668   -1208.4346        21.72 
    1400    1533.2103   -1263.7579    56.878518   -1206.8794        21.72 
    1500    1639.3986    -1265.507    60.817854   -1204.6892        21.72 
    1600     1645.046   -1262.1255    61.027358   -1201.0981        21.72 
    1700    1680.1763    -1257.213    62.330613   -1194.8824        21.72 
    1800    1862.4171   -1261.8372    69.091319   -1192.7459        21.72 
    1900    1846.0758   -1254.5596    68.485096   -1186.0745        21.72 
    2000    1744.9891   -1251.0699    64.735015   -1186.3349        21.72 
    2100    1930.1111   -1258.7323    71.602608   -1187.1297        21.72 
    2200    1723.7981   -1253.0917    63.948878   -1189.1429        21.72 
    2300    1681.9722   -1252.1224    62.397235   -1189.7252        21.72 
    2400    1766.2436   -1252.8104    65.523507   -1187.2869        21.72 
    2500     1652.721   -1251.0029    61.312086   -1189.6908        21.72 
    2600     1771.459   -1254.1322    65.716988   -1188.4152        21.72 
    2700    1883.7279   -1256.6473    69.881901   -1186.7654        21.72 
    2800    1722.9988   -1249.9602    63.919225    -1186.041        21.72 
    2900    1704.8651   -1249.6844     63.24651   -1186.4379        21.72 
    3000    2014.0708   -1256.6335    74.717318   -1181.9162        21.72 
    3100    1992.5694   -1253.4852    73.919664   -1179.5655        21.72 
    3200    1775.6716   -1246.6275    65.873265   -1180.7542        21.72 
    3300    1912.0086    -1248.095     70.93105    -1177.164        21.72 
    3400    1957.7025    -1249.814    72.626184   -1177.1878        21.72 
    3500     1846.782   -1245.3577    68.511294   -1176.8464        21.72 
    3600    1979.9033   -1245.9583    73.449783   -1172.5085        21.72 
    3700    2011.9647   -1246.8821    74.639186   -1172.2429        21.72 
    3800    1839.4171   -1242.4467    68.238072   -1174.2086        21.72 
    3900    1894.9428   -1244.5977    70.297947   -1174.2997        21.72 
    4000    1729.9781   -1244.6406    64.178143   -1180.4625        21.72 
    4100    1848.1491   -1246.0641     68.56201   -1177.5021        21.72 
    4200    1791.9475   -1247.4105    66.477061   -1180.9334        21.72 
    4300     1846.117     -1250.58    68.486624   -1182.0934        21.72 
    4400    1944.9145   -1252.1323    72.151778   -1179.9805        21.72 
    4500    1962.1153   -1253.3954    72.789889   -1180.6056        21.72 
    4600    1795.8877   -1250.0132    66.623232   -1183.3899        21.72 
    4700    1837.7219   -1250.0331    68.175186   -1181.8579        21.72 
    4800    1883.3091   -1255.0128    69.866364   -1185.1465        21.72 
    4900    1746.6052   -1250.1255    64.794967   -1185.3305        21.72 
    5000    1854.7774   -1252.8261    68.807904   -1184.0182        21.72 
    5100    1929.6441   -1254.0307    71.585284   -1182.4454        21.72 
    5200    1798.0458   -1250.4222    66.703294   -1183.7189        21.72 
    5300    1865.1623   -1252.8237    69.193158   -1183.6306        21.72 
    5400    1807.0745   -1251.9015    67.038238   -1184.8632        21.72 
    5500    1778.2383   -1250.9565    65.968484   -1184.9881        21.72 
    5600    1692.8721   -1246.6726    62.801596    -1183.871        21.72 
    5700     1870.863   -1250.5425    69.404641   -1181.1379        21.72 
    5800    1849.0822   -1249.4801    68.596625   -1180.8835        21.72 
    5900    1731.7559   -1250.5714    64.244095   -1186.3273        21.72 
    6000    1934.5229   -1256.8146    71.766274   -1185.0484        21.72 
    6100    1971.9893   -1257.1487     73.15619   -1183.9925        21.72 
    6200    1913.5663   -1255.5075    70.988835   -1184.5186        21.72 
    6300    1776.2516   -1254.0822     65.89478   -1188.1874        21.72 
    6400    1641.9028   -1252.9508    60.910754   -1192.0401        21.72 
    6500    1699.6205   -1254.1658    63.051947   -1191.1139        21.72 
    6600    1727.3938   -1254.8328    64.082271   -1190.7506        21.72 
    6700    1857.0111   -1257.1172     68.89077   -1188.2264        21.72 
    6800    1815.1826   -1251.6791    67.339029   -1184.3401        21.72 
    6900    1824.0921   -1251.2026    67.669551    -1183.533        21.72 
    7000    1782.3774   -1250.9797    66.122035   -1184.8576        21.72 
    7100      1696.23   -1251.5474    62.926168   -1188.6212        21.72 
    7200    1807.4043   -1253.2693    67.050474   -1186.2189        21.72 
    7300    1890.6769   -1253.8927    70.139692    -1183.753        21.72 
    7400    1953.9285   -1250.6643    72.486179   -1178.1781        21.72 
    7500    1732.2492   -1242.0719    64.262395   -1177.8095        21.72 
    7600    1834.1063   -1246.1755    68.041055   -1178.1345        21.72 
    7700    1887.9339   -1247.7903    70.037932   -1177.7524        21.72 
    7800     1931.891   -1249.6072    71.668638   -1177.9385        21.72 
    7900    1956.6789    -1247.778    72.588213   -1175.1898        21.72 
    8000    1905.9188   -1248.0032    70.705131    -1177.298        21.72 
    8100    1949.7348   -1249.9982    72.330602   -1177.6676        21.72 
    8200    1873.7058   -1246.0007    69.510104   -1176.4906        21.72 
    8300    2007.5644   -1251.9689    74.475946    -1177.493        21.72 
    8400    1970.5901   -1252.7984    73.104283   -1179.6941        21.72 
    8500    1982.5865   -1250.1751    73.549323   -1176.6258        21.72 
    8600    1850.2452   -1244.1824    68.639771   -1175.5426        21.72 
    8700    1960.2669   -1250.0689     72.72132   -1177.3476        21.72 
    8800    1948.3349   -1248.8962    72.278669   -1176.6175        21.72 
    8900    1930.1198   -1252.3479    71.602931    -1180.745        21.72 
    9000    1813.0657   -1247.3106    67.260498   -1180.0501        21.72 
    9100    1920.1638   -1251.6085    71.233587   -1180.3749        21.72 
    9200    2065.6514    -1257.874    76.630836   -1181.2431        21.72 
    9300    1984.3382   -1255.4772    73.614308   -1181.8629        21.72 
    9400    1809.2725   -1247.6046     67.11978   -1180.4848        21.72 
    9500    1975.4616   -1252.9348    73.285007   -1179.6497        21.72 
    9600    1851.7659   -1250.3713    68.696185   -1181.6751        21.72 
    9700    1790.0128   -1247.4499    66.405289   -1181.0446        21.72 
    9800     1821.138   -1249.4945     67.55996   -1181.9346        21.72 
    9900    1702.7536   -1247.2812    63.168175    -1184.113        21.72 
   10000    1774.5728   -1249.3156    65.832499   -1183.4831        21.72 
   10100    2001.9527   -1254.6979    74.267765   -1180.4302        21.72 
   10200    1986.0818   -1253.0962     73.67899   -1179.4172        21.72 
   10300     1812.865   -1247.3576    67.253053   -1180.1046        21.72 
   10400    1949.7263    -1248.135    72.330287   -1175.8047        21.72 
   10500    2018.8775   -1253.9036    74.895633    -1179.008        21.72 
   10600    1949.3115   -1252.6857      72.3149   -1180.3708        21.72 
   10700    1733.4011    -1247.564    64.305127   -1183.2589        21.72 
   10800    1782.5349   -1251.5905    66.127878   -1185.4626        21.72 
   10900    1787.1699   -1254.1761    66.299824   -1187.8762        21.72 
   11000    1724.0224   -1254.0379      63.9572   -1190.0807        21.72 
   11100    1911.7241   -1256.4327    70.920495   -1185.5122        21.72 
   11200    1898.0411   -1248.9517    70.412886   -1178.5388        21.72 
   11300    1834.3096   -1245.7363    68.048595   -1177.6877        21.72 
   11400    1980.6161   -1248.0095    73.476226   -1174.5333        21.72 
   11500    1775.7333   -1243.4984    65.875554   -1177.6229        21.72 
   11600     1875.369   -1245.1861    69.571804   -1175.6143        21.72 
   11700    2071.6941   -1248.4961    76.855008   -1171.6411        21.72 
   11800    1904.8817   -1241.1252    70.666656   -1170.4585        21.72 
   11900    2060.7337   -1242.3354      76.4484    -1165.887        21.72 
   12000      2151.75   -1245.9112    79.824895   -1166.0863        21.72 
   12100    2083.2957    -1245.824    77.285398   -1168.5386        21.72 
   12200    2046.7403   -1245.1659    75.929279   -1169.2366        21.72 
   12300    1993.7481   -1245.3489    73.963393   -1171.3856        21.72 
   12400    2051.8233   -1246.8488    76.117847   -1170.7309        21.72 
   12500    2101.7633    -1243.334    77.970504   -1165.3635        21.72 
   12600    2002.1675    -1242.862    74.275732   -1168.5862        21.72 
   12700    2027.2171   -1247.9055    75.205013   -1172.7005        21.72 
   12800    1925.7817   -1241.9793    71.441998   -1170.5373        21.72 
   12900     1769.569   -1236.4645    65.646873   -1170.8176        21.72 
   13000    2080.0528   -1243.0402    77.165096   -1165.8751        21.72 
   13100    1926.0776   -1241.1939    71.452975   -1169.7409        21.72 
   13200    2071.0294   -1240.1374    76.830346    -1163.307        21.72 
   13300    2111.6083   -1239.3373    78.335731   -1161.0015        21.72 
   13400    2052.1848   -1241.1766    76.131258   -1165.0454        21.72 
   13500    2064.2203    -1243.224    76.577747   -1166.6463        21.72 
   13600    2147.3016   -1248.2598    79.659867      -1168.6        21.72 
   13700    2064.5938   -1248.5704    76.591603   -1171.9788        21.72 
   13800    2042.7438   -1244.4539     75.78102   -1168.6728        21.72 
   13900    2073.3187   -1243.7987    76.915277   -1166.8834        21.72 
   14000    2116.3945   -1244.3974    78.513288   -1165.8841        21.72 
   14100    2054.2847   -1240.7143     76.20916   -1164.5051        21.72 
   14200    2026.8831   -1242.9655    75.192622   -1167.7729        21.72 
   14300    2001.0931   -1242.6765    74.235874   -1168.4406        21.72 
   14400    2007.9161   -1243.5808    74.488994   -1169.0918        21.72 
   14500    1959.3338   -1244.4269    72.686701   -1171.7402        21.72 
   14600    1914.4982   -1242.5739    71.023405   -1171.5505        21.72 
   14700    2078.9325   -1249.4716    77.123536   -1172.3481        21.72 
   14800    2214.2807   -1250.1975    82.144638   -1168.0529        21.72 
   14900    1963.2294   -1244.1949    72.831219   -1171.3637        21.72 
   15000     2098.809   -1249.4988    77.860906   -1171.6379        21.72 
   15100    2020.3086   -1248.4914    74.948725   -1173.5427        21.72 
   15200    2138.2438   -1251.1503    79.323846   -1171.8264        21.72 
   15300    2149.2598   -1252.6035    79.732514    -1172.871        21.72 
   15400    1715.1377   -1242.7205    63.627598   -1179.0929        21.72 
   15500    1915.5137   -1248.2832     71.06108   -1177.2221        21.72 
   15600    1931.6335   -1248.2783    71.659085   -1176.6192        21.72 
   15700    1829.9552   -1242.9607    67.887058   -1175.0737        21.72 
   15800    1857.4434   -1245.4623    68.906806   -1176.5555        21.72 
   15900    1819.1451   -1245.4775    67.486029   -1177.9915        21.72 
   16000    1825.0489   -1248.1497    67.705046   -1180.4446        21.72 
   16100     1888.521   -1247.4553    70.059712   -1177.3956        21.72 
   16200    1817.0814   -1244.1097     67.40947   -1176.7002        21.72 
   16300    1948.1053   -1246.6301    72.270151   -1174.3599        21.72 
   16400    1792.2412   -1243.2871    66.487956   -1176.7991        21.72 
   16500    2047.3514   -1250.4007    75.951951   -1174.4488        21.72 
   16600    2118.1362   -1250.4778    78.577899   -1171.8999        21.72 
   16700    1974.0407   -1249.8631    73.232296   -1176.6308        21.72 
   16800    1980.4724   -1246.3963    73.470895   -1172.9254        21.72 
   16900     2057.175   -1247.5674    76.316381    -1171.251        21.72 
   17000    2040.7862   -1249.6305    75.708395   -1173.9221        21.72 
   17100    1941.4729   -1246.3577    72.024106   -1174.3336        21.72 
   17200    1880.7621   -1245.1979    69.771878    -1175.426        21.72 
   17300    1821.1331   -1247.9485     67.55978   -1180.3887        21.72 
   17400    2058.4126   -1254.4943    76.362295    -1178.132        21.72 
   17500    1955.2727   -1253.7287    72.536043   -1181.1927        21.72 
   17600    1872.8206   -1247.7922    69.477264   -1178.3149        21.72 
   17700     1813.428   -1247.0755    67.273939   -1179.8016        21.72 
   17800    1930.8001   -1247.6286    71.628169   -1176.0004        21.72 
   17900    2052.0742    -1249.402    76.127155   -1173.2749        21.72 
   18000    2074.3308    -1248.336     76.95282   -1171.3832        21.72 
   18100    1838.4436   -1244.1101    68.201958   -1175.9081        21.72 
   18200    1954.0569   -1247.8433    72.490942   -1175.3524        21.72 
   18300    1838.1853   -1245.3557    68.192375   -1177.1633        21.72 
   18400    1876.5273   -1246.7206    69.614773   -1177.1058        21.72 
   18500    1925.6144   -1248.4582    71.435792   -1177.0224        21.72 
   18600     1775.371   -1245.9106    65.862112   -1180.0485        21.72 
   18700    1702.8052   -1244.8582     63.17009   -1181.6881        21.72 
   18800    1732.4837   -1247.1082    64.271092   -1182.8371        21.72 
   18900    1693.0358    -1248.067    62.807669   -1185.2593        21.72 
   19000    1771.4738   -1251.3346    65.717534   -1185.6171        21.72 
   19100    1827.2653   -1251.3866    67.787269   -1183.5993        21.72 
   19200     1872.221   -1247.9619    69.455023   -1178.5069        21.72 
   19300    1994.8179   -1250.1883     74.00308   -1176.1852        21.72 
   19400     2077.591   -1249.6062    77.073767   -1172.5324        21.72 
   19500    2070.3282   -1250.1009    76.804334   -1173.2966        21.72 
   19600    1829.9172   -1245.0233    67.885648   -1177.1377        21.72 
   19700    1866.7355   -1246.8264    69.251521   -1177.5749        21.72 
   19800    1910.9958   -1245.8487    70.893476   -1174.9552        21.72 
   19900    2058.3746   -1249.5683    76.360886   -1173.2074        21.72 
   20000    1965.2797    -1247.413    72.907281   -1174.5057        21.72 
   20100    1952.1216   -1244.5861    72.419145   -1172.1669        21.72 
   20200    2003.8411   -1247.2764     74.33782   -1172.9386        21.72 
   20300    1897.4109   -1245.5115    70.389507    -1175.122        21.72 
   20400    1739.5221   -1241.3485    64.532202   -1176.8163        21.72 
   20500    1866.0868   -1247.5887    69.227456   -1178.3612        21.72 
   20600    1830.4138   -1248.0639    67.904073   -1180.1598        21.72 
   20700    1815.9519   -1246.6798    67.367569   -1179.3122        21.72 
   20800    1917.4566    -1249.254    71.133154   -1178.1208        21.72 
   20900    1837.4358   -1249.2047    68.164573   -1181.0401        21.72 
   21000    1880.9953     -1247.82    69.780528   -1178.0395        21.72 
   21100    1891.0141   -1245.6357      70.1522   -1175.4835        21.72 
   21200    2007.5939   -1246.3865    74.477039   -1171.9094        21.72 
   21300    1973.1474   -1246.6487    73.199156   -1173.4495        21.72 
   21400    1915.9899   -1246.2321    71.078744   -1175.1534        21.72 
   21500    1944.4783   -1247.8774    72.135597   -1175.7418        21.72 
   21600    1886.8425   -1247.8444    69.997445   -1177.8469        21.72 
   21700    1808.7861   -1246.5126    67.101734   -1179.4109        21.72 
   21800    1744.5828   -1248.1451    64.719941   -1183.4251        21.72 
   21900    1743.5118   -1250.2251    64.680209   -1185.5449        21.72 
   22000    1813.2277   -1251.0872    67.266508   -1183.8207        21.72 
   22100    1706.5916    -1248.648    63.310559   -1185.3374        21.72 
   22200    1671.7262   -1248.6613    62.017134   -1186.6442        21.72 
   22300    1758.8547   -1250.2856    65.249395   -1185.0362        21.72 
   22400    1803.6076   -1251.6847    66.909623   -1184.7751        21.72 
   22500    1741.2695   -1250.1114    64.597025   -1185.5144        21.72 
   22600    1689.9929   -1244.6117    62.694783   -1181.9169        21.72 
   22700    1747.4487   -1245.8046     64.82626   -1180.9783        21.72 
   22800    1906.1805    -1250.585     70.71484   -1179.8702        21.72 
   22900     1837.252   -1246.1054    68.157754   -1177.9476        21.72 
   23000    1948.3844   -1249.8155    72.280506    -1177.535        21.72 
   23100    1963.6065    -1247.959    72.845209   -1175.1138        21.72 
   23200     1867.675    -1245.143    69.286375   -1175.8566        21.72 
   23300    1869.2021   -1247.3843    69.343027   -1178.0413        21.72 
   23400     1951.499   -1247.1168     72.39605   -1174.7207        21.72 
   23500    1854.5631   -1242.6681    68.799954   -1173.8681        21.72 
   23600     1925.442   -1243.3015    71.429397   -1171.8721        21.72 
   23700    1841.0354   -1244.4181    68.298107     -1176.12        21.72 
   23800    1821.1125   -1245.1883    67.559015   -1177.6293        21.72 
   23900    1946.5463   -1243.1317    72.212316   -1170.9194        21.72 
   24000    2040.7148    -1245.651    75.705748   -1169.9453        21.72 
   24100    2042.3493   -1244.1595    75.766381   -1168.3931        21.72 
   24200    2017.7375   -1242.1414    74.853343   -1167.2881        21.72 
   24300    1890.5645   -1240.6126    70.135523   -1170.4771        21.72 
   24400    2018.5831   -1244.5749    74.884715   -1169.6902        21.72 
   24500    1882.9913   -1241.1611    69.854574   -1171.3065        21.72 
   24600    1871.1339    -1238.356    69.414691   -1168.9413        21.72 
   24700    1946.0299    -1240.744    72.193159   -1168.5509        21.72 
   24800    1941.2791   -1238.0018    72.016913   -1165.9849        21.72 
   24900    1804.7532   -1235.6496    66.952122   -1168.6975        21.72 
   25000    1841.7614   -1239.9659     68.32504   -1171.6409        21.72 
   25100    1966.9797   -1242.0992    72.970346   -1169.1289        21.72 
   25200    1756.4827   -1238.7154    65.161399    -1173.554        21.72 
   25300    1915.6103   -1244.8659    71.064662   -1173.8012        21.72 
   25400    2130.8977   -1249.2503    79.051324    -1170.199        21.72 
   25500     1905.023   -1243.2563    70.671897   -1172.5844        21.72 
   25600    1786.4329   -1237.7578    66.272483   -1171.4853        21.72 
   25700    1873.9488   -1241.1388    69.519118   -1171.6196        21.72 
   25800    1810.9627   -1240.6545    67.182483    -1173.472        21.72 
   25900    1786.7871   -1238.4932    66.285623   -1172.2075        21.72 
   26000    1852.1926   -1240.7692    68.712014   -1172.0572        21.72 
   26100    1942.7646   -1244.3248    72.072025   -1172.2528        21.72 
   26200    1905.8365   -1244.7972    70.702079   -1174.0951        21.72 
   26300    1830.6154   -1244.8324    67.911549   -1176.9208        21.72 
   26400     2029.139   -1250.7732    75.276311   -1175.4969        21.72 
   26500    1841.5246   -1247.6094    68.316258   -1179.2931        21.72 
   26600     1771.579   -1246.7946    65.721438   -1181.0732        21.72 
   26700    1913.9554   -1253.1644    71.003269   -1182.1611        21.72 
   26800    1905.9255   -1253.6698    70.705381   -1182.9644        21.72 
   26900    1899.3882   -1251.3457    70.462861   -1180.8828        21.72 
   27000     1964.946   -1255.2097    72.894902   -1182.3148        21.72 
   27100    1855.2704   -1253.8352    68.826194    -1185.009        21.72 
   27200    1831.6498   -1251.1027    67.949924   -1183.1528        21.72 
   27300    1818.7306   -1248.1654    67.470654   -1180.6948        21.72 
   27400    1931.0416   -1250.7418    71.637127   -1179.1046        21.72 
   27500    1977.6892     -1251.61    73.367645   -1178.2424        21.72 
   27600    1905.3725   -1250.4769    70.684865   -1179.7921        21.72 
   27700    1871.7811   -1249.7281    69.438702   -1180.2894        21.72 
   27800    1993.1177   -1254.4701    73.940006   -1180.5301        21.72 
   27900    2048.2238   -1253.0004    75.984314   -1177.0161        21.72 
   28000    2044.7643    -1253.682    75.855973    -1177.826        21.72 
   28100    1924.2233   -1250.2256    71.384184   -1178.8414        21.72 
   28200    1824.0715   -1246.8727    67.668788   -1179.2039        21.72 
   28300    1768.5726   -1249.1978    65.609909   -1183.5878        21.72 
   28400    1936.3059   -1249.2014    71.832421   -1177.3689        21.72 
   28500    1997.7569   -1248.7415    74.112108   -1174.6294        21.72 
   28600     1956.006   -1246.6455    72.563248   -1174.0823        21.72 
   28700    1970.2319   -1245.9496    73.090996   -1172.8586        21.72 
   28800    1947.5428   -1244.7535    72.249285   -1172.5042        21.72 
   28900    1963.0243   -1245.1018    72.823613   -1172.2782        21.72 
   29000    2057.7426      -1250.5    76.337438   -1174.1625        21.72 
   29100    1900.3725   -1245.2742    70.499376   -1174.7748        21.72 
   29200    1938.1301   -1246.4147    71.900093   -1174.5146        21.72 
   29300    1909.4754   -1247.9795    70.837073   -1177.1424        21.72 
   29400    1865.5904   -1244.6128     69.20904   -1175.4037        21.72 
   29500    1862.4527   -1241.7142    69.092639   -1172.6216        21.72 
   29600    2061.9358    -1248.086    76.492998    -1171.593        21.72 
   29700    2085.7797   -1249.8946    77.377551   -1172.5171        21.72 
   29800    1883.4988   -1242.8099      69.8734   -1172.9365        21.72 
   29900     1927.754   -1245.8814    71.515165   -1174.3662        21.72 
   30000    1925.8789   -1244.2651    71.445602   -1172.8195        21.72 
   30100    1735.2095   -1242.9709    64.372217   -1178.5986        21.72 
   30200    1861.8266   -1248.9201    69.069413   -1179.8507        21.72 
   30300    1858.7572   -1249.5453    68.955547   -1180.5898        21.72 
   30400    1848.4442   -1247.2079    68.572956   -1178.6349        21.72 
   30500    1932.4027   -1245.8631    71.687621   -1174.1754        21.72 
   30600    1828.7267   -1242.8484    67.841484   -1175.0069        21.72 
   30700    1981.1507   -1249.2051    73.496059    -1175.709        21.72 
   30800    1902.9801   -1247.3714    70.596112   -1176.7753        21.72 
   30900    1921.6306   -1248.3773       71.288   -1177.0893        21.72 
   31000    1934.3233   -1247.8301    71.758872   -1176.0712        21.72 
   31100    1991.0238   -1247.1457    73.862328   -1173.2834        21.72 
   31200    1870.7315    -1243.834    69.399764   -1174.4342        21.72 
   31300    1873.8411   -1244.0128    69.515125   -1174.4977        21.72 
   31400    1988.2147   -1248.0319    73.758118   -1174.2738        21.72 
   31500     1892.073   -1241.1536    70.191482   -1170.9621        21.72 
   31600    2168.7226   -1249.2812    80.454536   -1168.8266        21.72 
   31700    2067.4947   -1247.4013    76.699219    -1170.702        21.72 
   31800    2137.6597   -1249.2378    79.302175   -1169.9357        21.72 
   31900    2128.5163   -1248.0406    78.962976   -1169.0777        21.72 
   32000    2074.0452   -1241.7078    76.942228   -1164.7655        21.72 
   32100    2012.0027   -1237.0414    74.640594   -1162.4008        21.72 
   32200    2202.8469   -1243.6734    81.720468   -1161.9529        21.72 
   32300    2066.2071   -1239.6503    76.651452   -1162.9988        21.72 
   32400    2136.6685   -1240.2268    79.265403   -1160.9614        21.72 
   32500    2144.7383   -1246.8866    79.564777   -1167.3219        21.72 
   32600    1968.4651   -1241.4268     73.02545   -1168.4013        21.72 
   32700    1886.3129   -1239.1712    69.977796   -1169.1934        21.72 
   32800    1862.4967   -1242.2359    69.094272   -1173.1416        21.72 
   32900    2008.6974   -1245.7722    74.517975   -1171.2543        21.72 
   33000    1953.9232   -1246.4167    72.485981   -1173.9307        21.72 
   33100    1858.9518   -1246.6719    68.962763   -1177.7091        21.72 
   33200    1915.7769   -1247.2098    71.070843   -1176.1389        21.72 
   33300    1622.3129   -1241.3535    60.184015   -1181.1695        21.72 
   33400    1840.1143   -1244.5303    68.263939   -1176.2663        21.72 
   33500    1863.4604   -1247.9888    69.130025   -1178.8588        21.72 
   33600     2024.699   -1249.4786    75.111599    -1174.367        21.72 
   33700    1870.3971   -1243.1625     69.38736   -1173.7751        21.72 
   33800    1912.8621   -1242.6373     70.96271   -1171.6746        21.72 
   33900    1986.5422   -1245.6909    73.696069   -1171.9949        21.72 
   34000    1919.1221   -1240.3646    71.194941   -1169.1696        21.72 
   34100    1817.7742   -1239.1278    67.435171   -1171.6926        21.72 
   34200    1910.6998   -1244.0976    70.882495   -1173.2151        21.72 
   34300    1820.8908   -1241.4204    67.550792   -1173.8696        21.72 
   34400    1823.7787   -1243.5117    67.657927   -1175.8537        21.72 
   34500    2040.6536   -1251.3075    75.703475    -1175.604        21.72 
   34600    1889.6725   -1249.0364     70.10243    -1178.934        21.72 
   34700    1898.9959   -1247.6225    70.448307   -1177.1742        21.72 
   34800    1808.1499   -1243.6457    67.078134   -1176.5676        21.72 
   34900    1818.5062    -1244.983    67.462328   -1177.5207        21.72 
   35000    1943.2316   -1249.5454    72.089348   -1177.4561        21.72 
   35100    1886.1819   -1247.9165    69.972938   -1177.9436        21.72 
   35200    1868.5009   -1248.7779    69.317015   -1179.4609        21.72 
   35300     1798.434   -1247.6655    66.717698   -1180.9478        21.72 
   35400    1761.8564   -1247.2786    65.360752   -1181.9179        21.72 
   35500    1796.9323   -1249.9962    66.661986   -1183.3342        21.72 
   35600     1915.119   -1253.0278    71.046437   -1181.9813        21.72 
   35700     1963.507   -1247.5169    72.841517   -1174.6753        21.72 
   35800    1967.5987   -1247.6742    72.993311   -1174.6809        21.72 
   35900    1941.8665   -1246.4204    72.038707   -1174.3817        21.72 
   36000    1886.0198   -1244.5865    69.966924   -1174.6195        21.72 
   36100    2007.6527   -1249.2701    74.479222   -1174.7909        21.72 
   36200    1916.3575   -1245.1576    71.092383   -1174.0652        21.72 
   36300    2003.2301   -1242.8228    74.315151   -1168.5077        21.72 
   36400     2020.561   -1245.2682    74.958089   -1170.3101        21.72 
   36500    1974.8114   -1244.5984    73.260884   -1171.3375        21.72 
   36600    2070.4386   -1246.8946    76.808432   -1170.0862        21.72 
   36700    1992.9911   -1242.4189    73.935308   -1168.4836        21.72 
   36800    1963.6698   -1238.5723    72.847558   -1165.7247        21.72 
   36900    1941.0638   -1237.8551    72.008928   -1165.8461        21.72 
   37000    1946.3736   -1238.2965    72.205907   -1166.0906        21.72 
   37100    1890.5904   -1238.4439    70.136482   -1168.3074        21.72 
   37200    1985.2154   -1243.2988     73.64685    -1169.652        21.72 
   37300    1861.2463   -1242.2243    69.047885   -1173.1764        21.72 
   37400    1820.8987   -1242.4453    67.551083   -1174.8942        21.72 
   37500    1805.8486   -1243.7812    66.992762   -1176.7885        21.72 
   37600    1917.4953   -1245.3578    71.134592   -1174.2233        21.72 
   37700    1885.7433   -1242.0898    69.956668   -1172.1332        21.72 
   37800    1956.3629   -1248.2028    72.576487   -1175.6263        21.72 
   37900     2018.166   -1248.8783    74.869241   -1174.0091        21.72 
   38000    1922.6994   -1240.9895    71.327651   -1169.6619        21.72 
   38100    1994.8509   -1245.2173    74.004302    -1171.213        21.72 
   38200    2022.0899   -1249.1204    75.014806   -1174.1056        21.72 
   38300     1974.197   -1248.1267    73.238094   -1174.8886        21.72 
   38400    2064.2294   -1248.6134    76.578083   -1172.0353        21.72 
   38500    1972.2108   -1246.3909    73.164408   -1173.2265        21.72 
   38600    2067.1592   -1248.0044    76.686773   -1171.3177        21.72 
   38700    2033.6097   -1247.8046    75.442165   -1172.3625        21.72 
   38800    1968.7115   -1246.8453    73.034592   -1173.8107        21.72 
   38900    1972.5922   -1246.1153    73.178558   -1172.9368        21.72 
   39000    1870.8757   -1246.4648    69.405115   -1177.0596        21.72 
   39100    2024.2399   -1250.1439    75.094568   -1175.0494        21.72 
   39200    1908.3052   -1247.8057     70.79366    -1177.012        21.72 
   39300    1864.9088    -1248.624    69.183756   -1179.4403        21.72 
   39400    2006.3233   -1253.4438    74.429903   -1179.0139        21.72 
   39500    2007.0378   -1251.5159    74.456407   -1177.0595        21.72 
   39600    1839.9261   -1245.8233    68.256957   -1177.5663        21.72 
   39700    2065.8509   -1251.2544    76.638237   -1174.6161        21.72 
   39800    1812.9909   -1242.2743    67.257723   -1175.0166        21.72 
   39900    1924.7753   -1246.1386    71.404662    -1174.734        21.72 
   40000    2050.6821   -1248.1999    76.075512   -1172.1244        21.72 
   40100      1922.76   -1246.1453      71.3299   -1174.8154        21.72 
   40200    1997.2071   -1248.4198    74.091714    -1174.328        21.72 
   40300    1944.5359   -1240.2701    72.137733   -1168.1324        21.72 
   40400    2036.7952   -1243.3784    75.560338   -1167.8181        21.72 
   40500    2111.3094   -1247.4951    78.324642   -1169.1704        21.72 
   40600    2040.4296   -1243.2803    75.695166   -1167.5851        21.72 
   40700     1902.903   -1237.3566    70.593252   -1166.7633        21.72 
   40800    1945.4505   -1240.0578    72.171664   -1167.8862        21.72 
   40900    1954.7524   -1240.5307    72.516742    -1168.014        21.72 
   41000    1946.0984   -1243.0956      72.1957   -1170.8999        21.72 
   41100    1966.9833   -1244.1308    72.970482   -1171.1603        21.72 
   41200     1964.157   -1243.3352    72.865631   -1170.4696        21.72 
   41300    2017.5102   -1242.5526     74.84491   -1167.7077        21.72 
   41400    2169.5277    -1245.268    80.484405   -1164.7836        21.72 
   41500    2081.5631   -1245.0478    77.221123   -1167.8267        21.72 
   41600    1937.8593   -1245.1981    71.890049   -1173.3081        21.72 
   41700    1928.5703     -1248.07    71.545447   -1176.5245        21.72 
   41800    1957.0438   -1249.8338     72.60175    -1177.232        21.72 
   41900    1944.7914   -1248.1899    72.147212   -1176.0427        21.72 
   42000    1941.2954   -1247.4309    72.017519   -1175.4134        21.72 
   42100    1994.1628   -1244.9183    73.978775   -1170.9395        21.72 
   42200     1889.128   -1242.0794    70.082229   -1171.9972        21.72 
   42300    1898.5636   -1241.2954    70.432271   -1170.8632        21.72 
   42400    2009.6797   -1243.7865    74.554418   -1169.2321        21.72 
   42500    2025.5469   -1243.3993    75.143055   -1168.2562        21.72 
   42600    2004.6764   -1242.2223    74.368807   -1167.8535        21.72 
   42700    1977.2063   -1244.7776    73.349731   -1171.4279        21.72 
   42800     2107.499   -1251.4985    78.183287   -1173.3152        21.72 
   42900    1807.2637   -1243.7015    67.045256   -1176.6562        21.72 
   43000    1724.6294   -1240.2072    63.979719   -1176.2275        21.72 
   43100    1901.7608   -1249.7564    70.550877   -1179.2055        21.72 
   43200     1827.291   -1246.1284    67.788224   -1178.3402        21.72 
   43300    1664.8221    -1243.771    61.761006     -1182.01        21.72 
   43400    1820.8514   -1247.7661    67.549327   -1180.2168        21.72 
   43500    1874.9636   -1248.7823    69.556765   -1179.2255        21.72 
   43600    1814.0816   -1246.0705    67.298186   -1178.7723        21.72 
   43700    1939.2109   -1248.0422    71.940189   -1176.1021        21.72 
   43800    1755.7735   -1243.8447    65.135091   -1178.7096        21.72 
   43900    1804.6465   -1243.6441    66.948164    -1176.696        21.72 
   44000    1889.3308   -1246.5277    70.089755   -1176.4379        21.72 
   44100    1832.8566   -1243.2905    67.994696   -1175.2958        21.72 
   44200    1957.2414   -1245.6855     72.60908   -1173.0764        21.72 
   44300    1994.7029   -1245.2829    73.998812   -1171.2841        21.72 
   44400    2065.5208    -1246.246    76.625991     -1169.62        21.72 
   44500    2025.5469    -1246.872    75.143052   -1171.7289        21.72 
   44600    1757.9213    -1242.052    65.214769   -1176.8373        21.72 
   44700    1807.7966    -1242.988    67.065028    -1175.923        21.72 
   44800     1828.833    -1242.029    67.845429   -1174.1836        21.72 
   44900    1910.4613    -1243.374    70.873647   -1172.5004        21.72 
   45000    1809.5535   -1242.3192    67.130203    -1175.189        21.72 
   45100    1901.1771   -1244.6748    70.529226   -1174.1456        21.72 
   45200    2059.0626    -1247.331    76.386408   -1170.9446        21.72 
   45300    1971.6297   -1247.6809    73.142851   -1174.5381        21.72 
   45400    1820.0568     -1244.17    67.519851   -1176.6502        21.72 
   45500    1907.2722   -1250.5321    70.755339   -1179.7768        21.72 
   45600    1910.2681   -1250.6397    70.866478   -1179.7732        21.72 
   45700    1835.6837   -1247.1818    68.099574   -1179.0823        21.72 
   45800     1831.678   -1246.9855    67.950971   -1179.0346        21.72 
   45900    1873.9299   -1251.1159    69.518418   -1181.5975        21.72 
   46000    1876.5081   -1249.9151    69.614062    -1180.301        21.72 
   46100    1789.4403   -1245.4177     66.38405   -1179.0336        21.72 
   46200    1835.2888   -1244.5159    68.084924    -1176.431        21.72 
   46300    1723.7446   -1243.3052    63.946894   -1179.3583        21.72 
   46400    1680.2221   -1241.1233     62.33231    -1178.791        21.72 
   46500    1829.3474   -1248.0456    67.864512   -1180.1811        21.72 
   46600    1891.6091   -1248.9549    70.174273   -1178.7807        21.72 
   46700    1781.6817   -1245.5221    66.096224   -1179.4259        21.72 
   46800    1863.9289   -1246.2657    69.147405   -1177.1183        21.72 
   46900    1809.5899   -1247.3718    67.131554   -1180.2403        21.72 
   47000    1819.8558   -1249.0562    67.512393   -1181.5438        21.72 
   47100    1700.6576   -1245.7483    63.090418   -1182.6579        21.72 
   47200    1919.3275    -1249.534    71.202561   -1178.3314        21.72 
   47300    1899.9051    -1245.349    70.482035   -1174.8669        21.72 
   47400    2008.6774   -1245.9555    74.517233   -1171.4383        21.72 
   47500    1937.4713   -1243.2993    71.875655   -1171.4237        21.72 
   47600    2054.7495   -1243.7398    76.226401   -1167.5134        21.72 
   47700      2004.28   -1241.5639      74.3541   -1167.2098        21.72 
   47800    2045.1708   -1239.7766    75.871053   -1163.9055        21.72 
   47900    2004.3655   -1240.6199    74.357274   -1166.2627        21.72 
   48000    2016.4854   -1246.3844    74.806894   -1171.5775        21.72 
   48100    1889.5192   -1242.3028    70.096744    -1172.206        21.72 
   48200    1847.1895   -1238.8529     68.52641   -1170.3265        21.72 
   48300    1962.5526   -1238.9748    72.806111   -1166.1687        21.72 
   48400    2093.1529   -1243.5254    77.651077   -1165.8743        21.72 
   48500     1897.589   -1236.4517    70.396113   -1166.0556        21.72 
   48600    2011.7576   -1242.7888    74.631502   -1168.1573        21.72 
   48700    2144.2982   -1242.3237     79.54845   -1162.7752        21.72 
   48800    1924.9761   -1237.2857    71.412111   -1165.8735        21.72 
   48900    1978.6405   -1243.1305    73.402936   -1169.7276        21.72 
   49000    1920.6823   -1240.7252    71.252822   -1169.4724        21.72 
   49100    2046.6058   -1241.7151     75.92429   -1165.7908        21.72 
   49200     2029.954   -1242.0141    75.306547   -1166.7076        21.72 
   49300    1903.0629   -1237.8236    70.599184   -1167.2244        21.72 
   49400    1881.4861   -1236.3361    69.798736   -1166.5373        21.72 
   49500    1985.1624   -1237.5127    73.644882   -1163.8678        21.72 
   49600    1975.9033   -1234.2515    73.301391   -1160.9501        21.72 
   49700    1808.0901   -1229.4935    67.075916   -1162.4176        21.72 
   49800     1962.247   -1233.5172    72.794775   -1160.7225        21.72 
   49900    1966.2768   -1235.0089     72.94427   -1162.0647        21.72 
   50000    1862.6906   -1232.3805    69.101466    -1163.279        21.72 
   50100    1869.7087   -1236.7034    69.361819   -1167.3416        21.72 
   50200    1910.4582   -1238.5997    70.873531   -1167.7262        21.72 
   50300    2091.5413   -1240.5016     77.59129   -1162.9104        21.72 
   50400     1876.238   -1234.8198    69.604042   -1165.2158        21.72 
   50500    1917.5334    -1237.647    71.136007    -1166.511        21.72 
   50600    1957.7806   -1240.6134    72.629083   -1167.9843        21.72 
   50700    1884.2101   -1234.3031    69.899789   -1164.4033        21.72 
   50800    2014.5886   -1240.0776    74.736527   -1165.3411        21.72 
   50900     2031.562   -1238.2474    75.366198   -1162.8812        21.72 
   51000    2018.2199    -1236.441    74.871241   -1161.5698        21.72 
   51100    2173.5106   -1243.0865    80.632162   -1162.4543        21.72 
   51200    2158.7297   -1240.5927    80.083825   -1160.5089        21.72 
   51300    1985.2912   -1233.1317    73.649661    -1159.482        21.72 
   51400     2054.986    -1235.755    76.235175   -1159.5198        21.72 
   51500    2000.2322   -1234.1239    74.203937     -1159.92        21.72 
   51600    2007.3397   -1233.1438     74.46761   -1158.6762        21.72 
   51700    2117.2118   -1233.0061    78.543608   -1154.4625        21.72 
   51800    2141.0631   -1234.9237    79.428433   -1155.4953        21.72 
   51900    2161.3308   -1238.4059    80.180317   -1158.2256        21.72 
   52000    2034.6103   -1236.2336    75.479283   -1160.7543        21.72 
   52100     2003.973   -1236.7006    74.342712   -1162.3579        21.72 
   52200    2132.1046    -1239.316    79.096094   -1160.2199        21.72 
   52300    2229.6809   -1240.0276    82.715948   -1157.3117        21.72 
   52400    2308.7789   -1238.8963      85.6503    -1153.246        21.72 
   52500    2125.2519   -1234.1358    78.841874   -1155.2939        21.72 
   52600     2020.316   -1232.2947    74.948999   -1157.3457        21.72 
   52700    1951.2251   -1232.9814    72.385888   -1160.5955        21.72 
   52800    2157.4193   -1241.5041     80.03521   -1161.4689        21.72 
   52900    2072.7245   -1239.0624    76.893232   -1162.1691        21.72 
   53000    1967.6856   -1237.5798    72.996536   -1164.5833        21.72 
   53100    2091.1309   -1241.6144    77.576067   -1164.0383        21.72 
   53200    2091.5575   -1239.6954    77.591893   -1162.1035        21.72 
   53300    2045.4383   -1240.3714    75.880979   -1164.4904        21.72 
   53400    2100.9711   -1245.4926    77.941116   -1167.5515        21.72 
   53500    1829.2012   -1238.0339    67.859086   -1170.1748        21.72 
   53600    1852.9338   -1238.8598    68.739512   -1170.1203        21.72 
   53700    2062.0459   -1243.5162    76.497081   -1167.0191        21.72 
   53800    1976.1568   -1241.2269    73.310798   -1167.9161        21.72 
   53900     1883.594   -1238.0158    69.876933   -1168.1388        21.72 
   54000    2001.1241   -1239.6335    74.237024   -1165.3965        21.72 
   54100     1917.516   -1237.7402    71.135359   -1166.6048        21.72 
   54200    1965.9825   -1235.4599    72.933353   -1162.5266        21.72 
   54300    1996.2993   -1233.4901    74.058035    -1159.432        21.72 
   54400    2050.9758   -1232.5147    76.086404   -1156.4283        21.72 
   54500    1876.2796   -1225.9188    69.605586   -1156.3132        21.72 
   54600    2033.6197   -1235.3981    75.442534   -1159.9556        21.72 
   54700    1944.8189   -1235.2463    72.148234    -1163.098        21.72 
   54800    1865.6296   -1232.1529    69.210495   -1162.9424        21.72 
   54900    2009.9974   -1238.5973    74.566204   -1164.0311        21.72 
   55000    1958.0166   -1239.9961    72.637836   -1167.3582        21.72 
   55100     1748.019   -1233.2496    64.847419   -1168.4022        21.72 
   55200    1818.3306   -1235.3896    67.455813   -1167.9338        21.72 
   55300    1906.6062    -1237.105    70.730633   -1166.3743        21.72 
   55400    1862.1171   -1236.7231    69.080189    -1167.643        21.72 
   55500    1851.0613   -1238.9234    68.670047   -1170.2534        21.72 
   55600    1927.2356   -1239.1755    71.495934   -1167.6796        21.72 
   55700    2010.5095   -1240.4868    74.585201   -1165.9016        21.72 
   55800    1944.7942   -1243.0702    72.147317   -1170.9229        21.72 
   55900    1921.9927   -1242.8506    71.301434   -1171.5492        21.72 
   56000    1815.1638   -1239.7322    67.338332   -1172.3939        21.72 
   56100    1822.1028   -1241.6753    67.595754   -1174.0795        21.72 
   56200    1872.7313   -1242.9918    69.473952   -1173.5179        21.72 
   56300    1733.8433   -1236.3748    64.321534   -1172.0532        21.72 
   56400    1615.1681   -1233.8032    59.918961   -1173.8842        21.72 
   56500    2039.8277   -1243.2779    75.672839   -1167.6051        21.72 
   56600    1855.0213   -1239.5891    68.816954   -1170.7721        21.72 
   56700    1794.7271   -1235.4122    66.580178    -1168.832        21.72 
   56800    1955.6079   -1242.1432    72.548481   -1169.5947        21.72 
   56900    2001.6527   -1245.5375    74.256636   -1171.2809        21.72 
   57000    1865.5043    -1241.997    69.205845   -1172.7911        21.72 
   57100    1719.0238   -1239.6901    63.771763   -1175.9183        21.72 
   57200    1938.7147   -1247.1743    71.921784   -1175.2526        21.72 
   57300    1811.0503   -1244.2977    67.185733    -1177.112        21.72 
   57400    1801.7804   -1243.8969    66.841838    -1177.055        21.72 
   57500    1827.7649    -1244.633    67.805805   -1176.8272        21.72 
   57600      1891.99   -1242.5422    70.188403   -1172.3538        21.72 
   57700    1886.5639   -1243.3118    69.987108   -1173.3247        21.72 
   57800    1878.1955   -1241.2906    69.676661   -1171.6139        21.72 
   57900    1784.5745   -1235.1409     66.20354   -1168.9374        21.72 
   58000    1656.9928   -1232.8469    61.470559   -1171.3764        21.72 
   58100    1872.8071   -1244.0185    69.476765   -1174.5417        21.72 
   58200    1921.2524   -1247.7309     71.27397    -1176.457        21.72 
   58300     1737.438   -1244.9899    64.454888    -1180.535        21.72 
   58400    1767.7924   -1245.9215    65.580964   -1180.3406        21.72 
   58500    1842.8253   -1247.8018    68.364508   -1179.4373        21.72 
   58600    1823.7681   -1246.3415    67.657532    -1178.684        21.72 
   58700    1885.7226   -1246.2736      69.9559   -1176.3177        21.72 
   58800    1908.0022   -1248.4934    70.782419    -1177.711        21.72 
   58900     1870.741   -1248.7149    69.400116   -1179.3147        21.72 
   59000    1815.2023   -1246.1849    67.339762   -1178.8451        21.72 
   59100    1830.1496   -1245.8145     67.89427   -1177.9202        21.72 
   59200    1860.7624   -1244.6816    69.029934   -1175.6516        21.72 
   59300    1910.4218   -1244.9088    70.872182   -1174.0366        21.72 
   59400    1801.8239   -1239.2719    66.843454   -1172.4284        21.72 
   59500    1830.3348   -1238.8528     67.90114   -1170.9516        21.72 
   59600    1999.0269   -1242.8785    74.159224   -1168.7193        21.72 
   59700    1973.8224   -1242.4179    73.224197   -1169.1937        21.72 
   59800     1879.952   -1241.4547    69.741823   -1171.7128        21.72 
   59900    1877.3745   -1241.3007    69.646205   -1171.6545        21.72 
   60000    1892.0612   -1241.1554    70.191047   -1170.9644        21.72 
   60100    1842.0601    -1240.358    68.336123   -1172.0219        21.72 
   60200    2000.0281    -1241.318    74.196364   -1167.1216        21.72 
   60300    1996.5267   -1244.2539    74.066474   -1170.1874        21.72 
   60400    1887.5721   -1240.7179     70.02451   -1170.6934        21.72 
   60500    2131.3737   -1247.4904     79.06898   -1168.4214        21.72 
   60600    2164.9077   -1249.6042    80.313013   -1169.2911        21.72 
   60700    1853.9884   -1243.9523    68.778634   -1175.1737        21.72 
   60800    1901.7171   -1249.1864    70.549257   -1178.6372        21.72 
   60900    1958.5245    -1251.303    72.656678   -1178.6464        21.72 
   61000    1882.9166   -1249.2461    69.851802   -1179.3943        21.72 
   61100    2007.0878    -1248.297    74.458265   -1173.8387        21.72 
   61200    1931.0977   -1247.1373    71.639207   -1175.4981        21.72 
   61300    1853.1076   -1241.6617    68.745957   -1172.9158        21.72 
   61400    1818.6812   -1240.2321     67.46882   -1172.7632        21.72 
   61500    1940.1163    -1245.553    71.973776   -1173.5792        21.72 
   61600    1850.8901   -1243.4864    68.663695   -1174.8227        21.72 
   61700     1784.483   -1236.5501    66.200146   -1170.3499        21.72 
   61800    1997.6664   -1245.3454    74.108751   -1171.2366        21.72 
   61900    1946.3013   -1242.9871    72.203226   -1170.7838        21.72 
   62000    1917.9604   -1238.9069    71.151847   -1167.7551        21.72 
   62100    1966.7025   -1239.7634    72.960064   -1166.8034        21.72 
   62200    2134.2044    -1245.996    79.173993    -1166.822        21.72 
   62300    2124.4767   -1245.2101    78.813118    -1166.397        21.72 
   62400    2126.2455   -1245.7714    78.878738   -1166.8927        21.72 
   62500    1945.3523   -1244.3481    72.168023   -1172.1801        21.72 
   62600    1840.5899   -1239.3171    68.281581   -1171.0355        21.72 
   62700      1869.92   -1238.0745    69.369659   -1168.7049        21.72 
   62800    1887.6956   -1238.4848    70.029091   -1168.4557        21.72 
   62900     1949.821   -1240.9692    72.333799   -1168.6354        21.72 
   63000    2019.1881   -1242.5433    74.907155   -1167.6361        21.72 
   63100     2023.881   -1242.7221    75.081251   -1167.6408        21.72 
   63200    1975.8817   -1240.1779     73.30059   -1166.8773        21.72 
   63300      1972.06   -1241.7123    73.158815   -1168.5535        21.72 
   63400     1981.517   -1245.0269    73.509646   -1171.5173        21.72 
   63500    1915.4221   -1242.5103    71.057681   -1171.4527        21.72 
   63600    1876.8773    -1241.081    69.627757   -1171.4532        21.72 
   63700    2067.0707   -1243.5876    76.683489   -1166.9041        21.72 
   63800      2113.69   -1242.0453    78.412958   -1163.6324        21.72 
   63900    1966.8761   -1236.8009    72.966505   -1163.8344        21.72 
   64000    2085.2923   -1239.9972    77.359469   -1162.6378        21.72 
   64100    2096.3303   -1239.8506    77.768952   -1162.0817        21.72 
   64200    1994.6229   -1237.5437    73.995846   -1163.5478        21.72 
   64300    2022.5078    -1240.059    75.030311   -1165.0287        21.72 
   64400    1870.9605   -1238.9627    69.408258   -1169.5545        21.72 
   64500    1890.3558   -1237.8822    70.127781   -1167.7544        21.72 
   64600    1799.3077   -1238.5197    66.750106   -1171.7696        21.72 
   64700    1866.2632   -1241.2278    69.233999   -1171.9938        21.72 
   64800    1912.2855   -1242.1221    70.941319   -1171.1808        21.72 
   64900    1976.9417   -1244.3569    73.339913    -1171.017        21.72 
   65000    1903.6779   -1240.5074    70.621997   -1169.8854        21.72 
   65100    1856.5336   -1238.0031    68.873054     -1169.13        21.72 
   65200    1970.0191   -1239.8172    73.083101   -1166.7341        21.72 
   65300    1873.4539   -1239.3765     69.50076   -1169.8758        21.72 
   65400    1830.9003   -1234.9926    67.922119   -1167.0705        21.72 
   65500    1860.3769   -1238.2099    69.015634   -1169.1943        21.72 
   65600     1810.038   -1237.7243    67.148176   -1170.5761        21.72 
   65700     1807.538    -1238.419    67.055434   -1171.3636        21.72 
   65800    1809.5654   -1239.1325    67.130645   -1172.0019        21.72 
   65900    1833.0188   -1237.6366    68.000712   -1169.6359        21.72 
   66000    2016.2176   -1242.0043    74.796958   -1167.2074        21.72 
   66100    1896.1428   -1237.1567    70.342463   -1166.8143        21.72 
   66200    1978.5865   -1240.1861    73.400932   -1166.7852        21.72 
   66300    2042.9741   -1240.2336     75.78956    -1164.444        21.72 
   66400     2012.945   -1235.7701    74.675553   -1161.0946        21.72 
   66500    2066.5735   -1239.9928    76.665043   -1163.3277        21.72 
   66600    2213.4457   -1242.0641    82.113658   -1159.9505        21.72 
   66700     1965.549   -1231.7801    72.917273   -1158.8628        21.72 
   66800    1990.2036   -1232.3569      73.8319    -1158.525        21.72 
   66900    1972.2351   -1234.3914     73.16531   -1161.2261        21.72 
   67000    1921.2136   -1236.7478    71.272532   -1165.4752        21.72 
   67100     1919.588   -1236.3732    71.212226    -1165.161        21.72 
   67200    1831.9719   -1233.9258    67.961873   -1165.9639        21.72 
   67300     1791.187   -1233.9602    66.448848   -1167.5113        21.72 
   67400    1806.5055    -1238.886    67.017131   -1171.8689        21.72 
   67500    2019.0503   -1243.4218    74.902047   -1168.5197        21.72 
   67600    1910.7287    -1241.696    70.883566   -1170.8124        21.72 
   67700    1969.6967    -1241.158    73.071141   -1168.0869        21.72 
   67800    2073.1262   -1244.6739    76.908133   -1167.7657        21.72 
   67900    2109.8739   -1247.4214     78.27139     -1169.15        21.72 
   68000    1946.2585   -1244.5125    72.201641   -1172.3109        21.72 
   68100    1896.1563   -1243.4856    70.342964   -1173.1426        21.72 
   68200    1893.1486   -1244.0177    70.231385   -1173.7863        21.72 
   68300    1808.3367   -1240.8455    67.085064   -1173.7604        21.72 
   68400    1968.1963   -1241.7466     73.01548   -1168.7312        21.72 
   68500    1737.3126   -1237.3026    64.450237   -1172.8524        21.72 
   68600    1931.3272    -1243.546    71.647721   -1171.8983        21.72 
   68700     1886.199   -1244.2961    69.973572   -1174.3226        21.72 
   68800    1672.6558   -1237.7606    62.051618    -1175.709        21.72 
   68900    1862.2476   -1242.3695    69.085032   -1173.2845        21.72 
   69000    1849.6973   -1244.5609    68.619446   -1175.9414        21.72 
   69100    1844.6395   -1241.5708    68.431812    -1173.139        21.72 
   69200    1790.1756   -1236.2448     66.41133   -1169.8334        21.72 
   69300    1912.2246   -1239.8862    70.939061   -1168.9472        21.72 
   69400    1949.0116   -1237.7437    72.303772   -1165.4399        21.72 
   69500    1925.5709   -1238.0478    71.434178   -1166.6136        21.72 
   69600      2180.22   -1244.8648    80.881065   -1163.9838        21.72 
   69700    1972.5439   -1236.1886    73.176768   -1163.0118        21.72 
   69800    1893.8743   -1231.6336    70.258307   -1161.3753        21.72 
   69900    2092.8881   -1239.2177    77.641253   -1161.5765        21.72 
   70000    2005.6476    -1241.111    74.404835   -1166.7061        21.72 
   70100    1835.5548   -1233.2472     68.09479   -1165.1524        21.72 
   70200    1969.1374   -1239.1047    73.050391   -1166.0543        21.72 
   70300    1989.8379   -1241.0742    73.818335   -1167.2559        21.72 
   70400    1945.6077   -1238.6868    72.177497   -1166.5093        21.72 
   70500    1956.1453   -1238.3972    72.568415   -1165.8288        21.72 
   70600    1885.3387   -1233.9348    69.941658   -1163.9932        21.72 
   70700    1878.1807   -1230.5133    69.676111   -1160.8372        21.72 
   70800    2001.4671   -1235.0971    74.249748   -1160.8474        21.72 
   70900    1960.3148   -1237.6687    72.723097   -1164.9456        21.72 
   71000    2135.1675   -1241.0312     79.20972   -1161.8214        21.72 
   71100    2102.2927   -1237.2531    77.990145    -1159.263        21.72 
   71200    2037.2603   -1235.2556    75.577595    -1159.678        21.72 
   71300    2161.3014   -1236.6385    80.179227   -1156.4593        21.72 
   71400    2074.3317   -1232.0912    76.952856   -1155.1384        21.72 
   71500    2053.7519   -1234.1946    76.189393   -1158.0052        21.72 
   71600    1989.5249   -1232.6053    73.806722   -1158.7986        21.72 
   71700    1932.8649   -1228.5635    71.704767   -1156.8587        21.72 
   71800    1988.5281   -1232.2936    73.769741   -1158.5239        21.72 
   71900    1937.7193   -1229.2907    71.884857   -1157.4058        21.72 
   72000    2031.8291   -1230.0272    75.376109    -1154.651        21.72 
   72100    2133.1475   -1233.9344    79.134785   -1154.7996        21.72 
   72200    1974.3127   -1231.7903    73.242385    -1158.548        21.72 
   72300    2150.1338   -1234.3659    79.764935    -1154.601        21.72 
   72400    2028.8739   -1233.8163    75.266476   -1158.5498        21.72 
   72500    2058.2852   -1234.1634    76.357569   -1157.8058        21.72 
   72600    2118.6806   -1235.2335    78.598096   -1156.6354        21.72 
   72700    2143.2797   -1238.5985    79.510664   -1159.0878        21.72 
   72800    2201.5962   -1239.7428    81.674072   -1158.0687        21.72 
   72900    2209.5366   -1236.9404    81.968641   -1154.9717        21.72 
   73000    2148.5256   -1236.9558    79.705274   -1157.2505        21.72 
   73100    2166.5708   -1236.2994    80.374709   -1155.9247        21.72 
   73200    2022.2568   -1233.0612       75.021   -1158.0402        21.72 
   73300    2068.4203   -1235.6063    76.733556   -1158.8728        21.72 
   73400    2035.1712   -1235.2229    75.500093   -1159.7228        21.72 
   73500    2057.1282    -1237.241    76.314646   -1160.9263        21.72 
   73600    2072.0542   -1240.3213    76.868364   -1163.4529        21.72 
   73700    1932.6268   -1237.8568    71.695935   -1166.1609        21.72 
   73800    1950.6099   -1238.7238    72.363065   -1166.3608        21.72 
   73900    2066.3125   -1241.7395    76.655363   -1165.0841        21.72 
   74000     1865.031   -1237.3662     69.18829   -1168.1779        21.72 
   74100    1999.5091   -1239.2933    74.177111   -1165.1162        21.72 
   74200    1961.6469   -1236.1276    72.772513   -1163.3551        21.72 
   74300    2024.9795   -1237.6938    75.122005   -1162.5718        21.72 
   74400    1965.2503    -1233.427    72.906191   -1160.5208        21.72 
   74500    1979.9582   -1233.5985     73.45182   -1160.1467        21.72 
   74600    1993.0091   -1237.8352    73.935978   -1163.8992        21.72 
   74700    2042.1492    -1236.371    75.758961    -1160.612        21.72 
   74800    2012.2813   -1232.8571     74.65093   -1158.2062        21.72 
   74900    1998.8958   -1229.7619    74.154361   -1155.6076        21.72 
   75000    2152.5274   -1233.9121    79.853733   -1154.0584        21.72 
   75100    2229.1987   -1236.6599    82.698058   -1153.9619        21.72 
   75200    2105.4118    -1234.402    78.105856   -1156.2961        21.72 
   75300    2093.2879    -1232.216    77.656086     -1154.56        21.72 
   75400    2049.1808   -1230.9526    76.019815   -1154.9327        21.72 
   75500    2121.4708   -1232.1228    78.701606   -1153.4212        21.72 
   75600    2140.9795    -1235.089    79.425334   -1155.6637        21.72 
   75700    2113.9038   -1229.8021    78.420889   -1151.3812        21.72 
   75800    2256.6034   -1232.2413    83.714711   -1148.5265        21.72 
   75900    2078.8161   -1224.5934    77.119215   -1147.4742        21.72 
   76000    1903.1151   -1223.9802    70.601121   -1153.3791        21.72 
   76100    2148.7926   -1234.6667    79.715182   -1154.9515        21.72 
   76200    2078.8277   -1231.8485    77.119648   -1154.7288        21.72 
   76300     1995.572    -1226.871    74.031055   -1152.8399        21.72 
   76400    2061.5891   -1232.4281    76.480134    -1155.948        21.72 
   76500    1996.1606   -1233.4245     74.05289   -1159.3716        21.72 
   76600    2209.0974   -1238.6117    81.952349   -1156.6593        21.72 
   76700    2208.5728    -1237.111    81.932886   -1155.1781        21.72 
   76800    2066.8968   -1230.8334    76.677037   -1154.1564        21.72 
   76900    2203.0972   -1241.0076    81.729755   -1159.2779        21.72 
   77000    2162.4438   -1240.0578    80.221609   -1159.8362        21.72 
   77100    2091.8625   -1233.9194    77.603207   -1156.3162        21.72 
   77200     1860.191    -1231.201    69.008736   -1162.1923        21.72 
   77300    2017.7734   -1236.0307    74.854676    -1161.176        21.72 
   77400    1902.3029   -1234.6954    70.570988   -1164.1244        21.72 
   77500    1935.9272   -1233.0307    71.818373   -1161.2123        21.72 
   77600    1943.1169   -1233.2361    72.085094    -1161.151        21.72 
   77700      2071.63   -1236.5938    76.852629   -1159.7412        21.72 
   77800    1979.5082   -1235.2166    73.435126   -1161.7814        21.72 
   77900    1850.4305   -1230.6379    68.646645   -1161.9912        21.72 
   78000     1852.048   -1232.7764     68.70665   -1164.0697        21.72 
   78100    1890.5518   -1235.5271    70.135052   -1165.3921        21.72 
   78200    2050.2204   -1239.1357    76.058384   -1163.0773        21.72 
   78300    1982.5003   -1233.5869    73.546127   -1160.0407        21.72 
   78400    1943.1593   -1230.9649    72.086668   -1158.8782        21.72 
   78500    1915.1682   -1229.7832    71.048264    -1158.735        21.72 
   78600    1964.3947   -1229.1914    72.874451    -1156.317        21.72 
   78700    2053.8336   -1230.9105    76.192422   -1154.7181        21.72 
   78800    1988.2271   -1229.4327    73.758576   -1155.6741        21.72 
   78900    2022.3222   -1232.8023    75.023425   -1157.7788        21.72 
   79000    2030.6124   -1232.2748    75.330972   -1156.9439        21.72 
   79100     2000.423   -1227.2426    74.211017   -1153.0316        21.72 
   79200    2029.2395   -1231.9797    75.280039   -1156.6996        21.72 
   79300    2149.9142   -1237.8855    79.756791   -1158.1287        21.72 
   79400    1937.0015    -1234.705    71.858224   -1162.8468        21.72 
   79500    1897.3033   -1233.9905    70.385516    -1163.605        21.72 
   79600    1867.4358    -1232.467      69.2775   -1163.1895        21.72 
   79700    1958.6495   -1232.6705    72.661315   -1160.0092        21.72 
   79800    1775.6466   -1228.6649    65.872338   -1162.7926        21.72 
   79900    1884.9575   -1234.2851    69.927517   -1164.3576        21.72 
   80000    2000.2005   -1239.2968    74.202762   -1165.0941        21.72 
   80100    1750.4331   -1232.9619    64.936975   -1168.0249        21.72 
   80200    1919.2549   -1234.5644    71.199868   -1163.3645        21.72 
   80300     1848.166   -1229.6206    68.562636    -1161.058        21.72 
   80400    1906.5464   -1230.0597    70.728413   -1159.3313        21.72 
   80500     2044.918   -1236.7194    75.861676   -1160.8577        21.72 
   80600    1873.5054   -1235.4769    69.502668   -1165.9742        21.72 
   80700    1800.1519   -1234.1753    66.781427   -1167.3939        21.72 
   80800    1834.0008   -1230.2025    68.037142   -1162.1654        21.72 
   80900    2135.3617   -1236.7975    79.216925   -1157.5806        21.72 
   81000    1972.8588   -1233.6874    73.188448   -1160.4989        21.72 
   81100     1878.733   -1229.2124      69.6966   -1159.5158        21.72 
   81200    1853.5452   -1232.5584    68.762194   -1163.7962        21.72 
   81300    1875.5697   -1231.5402    69.579249   -1161.9609        21.72 
   81400    1743.1125    -1227.776    64.665399   -1163.1106        21.72 
   81500    1981.0178   -1233.4454    73.491127   -1159.9543        21.72 
   81600    2035.2614   -1235.1733     75.50344   -1159.6699        21.72 
   81700    1796.6708   -1227.5641    66.652286   -1160.9118        21.72 
   81800    1917.8045    -1231.566    71.146062   -1160.4199        21.72 
   81900    1908.5093   -1231.9667    70.801232   -1161.1655        21.72 
   82000    1744.0827   -1226.9595    64.701388   -1162.2581        21.72 
   82100    1796.2177   -1228.6751    66.635477   -1162.0396        21.72 
   82200    1841.8862   -1230.9575    68.329671   -1162.6278        21.72 
   82300    1988.9523   -1232.5346    73.785481   -1158.7491        21.72 
   82400    2023.9908   -1239.1735    75.085327   -1164.0881        21.72 
   82500    2004.5684   -1238.1567    74.364802   -1163.7919        21.72 
   82600    1829.7791   -1231.4317    67.880526   -1163.5512        21.72 
   82700    1940.4461   -1235.1645    71.986013   -1163.1785        21.72 
   82800    2066.0974   -1237.8598    76.647381   -1161.2124        21.72 
   82900    1829.6092   -1229.1269    67.874222   -1161.2526        21.72 
   83000    1873.5593   -1229.2575    69.504669   -1159.7528        21.72 
   83100    1984.9696   -1231.3532    73.637731   -1157.7155        21.72 
   83200    1885.9842   -1226.4829    69.965604   -1156.5173        21.72 
   83300     2044.921   -1225.1707    75.861789   -1149.3089        21.72 
   83400    2183.3196   -1230.1107    80.996053   -1149.1147        21.72 
   83500    1989.0349   -1224.3122    73.788542   -1150.5237        21.72 
   83600    1867.4006     -1221.19    69.276195   -1151.9138        21.72 
   83700    1939.9881   -1221.9134     71.96902   -1149.9443        21.72 
   83800     1839.768   -1222.4232    68.251091   -1154.1721        21.72 
   83900    1936.8701   -1224.3273    71.853352   -1152.4739        21.72 
   84000    2134.5357   -1230.6468    79.186283   -1151.4605        21.72 
   84100    2003.2282   -1227.6238    74.315082   -1153.3088        21.72 
   84200     2034.751   -1230.0262    75.484503   -1154.5417        21.72 
   84300    2055.2766   -1225.3881    76.245956   -1149.1422        21.72 
   84400    1929.6793   -1221.0234    71.586591   -1149.4368        21.72 
   84500    2131.8975   -1226.6131     79.08841   -1147.5246        21.72 
   84600    1989.0502   -1225.4319     73.78911   -1151.6428        21.72 
   84700    2002.9675   -1224.3351     74.30541   -1150.0297        21.72 
   84800    1971.7541   -1225.1041    73.147465   -1151.9567        21.72 
   84900    1919.7746   -1222.9654     71.21915   -1151.7463        21.72 
   85000    2051.3391   -1226.6804    76.099884   -1150.5806        21.72 
   85100    1964.0342   -1224.7083    72.861075   -1151.8472        21.72 
   85200    1971.5967   -1228.9123    73.141626   -1155.7707        21.72 
   85300    1891.7092   -1228.2844    70.177988   -1158.1064        21.72 
   85400    1843.1003   -1227.0802     68.37471   -1158.7055        21.72 
   85500    1853.0276   -1229.4768    68.742991   -1160.7338        21.72 
   85600    1814.3026   -1233.6129    67.306386   -1166.3065        21.72 
   85700    1834.8227   -1229.4257    68.067631    -1161.358        21.72 
   85800    1905.8029   -1227.9024    70.700831   -1157.2016        21.72 
   85900    2001.4057   -1234.3603    74.247473   -1160.1129        21.72 
   86000    1847.6751   -1230.1156    68.544427   -1161.5712        21.72 
   86100     1860.471   -1228.6564    69.019124   -1159.6373        21.72 
   86200    2063.2438    -1235.947    76.541519   -1159.4055        21.72 
   86300    1952.3941   -1234.2339    72.429254   -1161.8047        21.72 
   86400    2047.4211   -1235.7389    75.954534   -1159.7844        21.72 
   86500    2036.4507   -1235.2678    75.547559   -1159.7203        21.72 
   86600    1776.3969   -1228.0246    65.900171   -1162.1245        21.72 
   86700    1846.8789   -1229.8779     68.51489    -1161.363        21.72 
   86800    1936.7911   -1230.4188    71.850422   -1158.5683        21.72 
   86900    1889.3693   -1231.2389    70.091181   -1161.1477        21.72 
   87000    1947.9918   -1230.8634    72.265942   -1158.5975        21.72 
   87100    1902.7921   -1230.9046    70.589138   -1160.3154        21.72 
   87200    1926.5724   -1230.8901    71.471331   -1159.4187        21.72 
   87300    1904.2832   -1231.4864    70.644453    -1160.842        21.72 
   87400    1776.3675   -1225.9619    65.899081   -1160.0629        21.72 
   87500    1948.1308   -1232.8477    72.271097   -1160.5766        21.72 
   87600     2033.911   -1238.1576    75.453342   -1162.7043        21.72 
   87700    1851.7828   -1232.6935     68.69681   -1163.9967        21.72 
   87800    1913.2466   -1235.5124    70.976977   -1164.5355        21.72 
   87900    1855.4443    -1234.624    68.832644   -1165.7914        21.72 
   88000    1768.7621   -1230.5234    65.616937   -1164.9065        21.72 
   88100    1827.5061   -1232.3376    67.796204   -1164.5414        21.72 
   88200    1799.0291   -1229.7725    66.739771   -1163.0328        21.72 
   88300    1873.9322   -1232.5365    69.518503    -1163.018        21.72 
   88400    1875.1072    -1229.797    69.562092   -1160.2349        21.72 
   88500     1868.688   -1228.0157    69.323955   -1158.6917        21.72 
   88600    1920.6203   -1233.1955    71.250521    -1161.945        21.72 
   88700    1894.3133   -1233.1319    70.274594   -1162.8573        21.72 
   88800    1837.9325   -1230.2543    68.182999   -1162.0713        21.72 
   88900    1904.7961   -1231.5143    70.663483   -1160.8508        21.72 
   89000    1812.3708   -1228.0987    67.234717    -1160.864        21.72 
   89100    1820.5706     -1228.79    67.538914    -1161.251        21.72 
   89200    1927.9555   -1233.4251     71.52264   -1161.9025        21.72 
   89300    2033.2231   -1234.0446    75.427824   -1158.6167        21.72 
   89400    1988.2465   -1232.1418    73.759298   -1158.3825        21.72 
   89500    2059.8243   -1233.3532    76.414663   -1156.9385        21.72 
   89600    1843.8904   -1224.4645    68.404023   -1156.0604        21.72 
   89700    1702.9291   -1217.9661    63.174689   -1154.7914        21.72 
   89800    1922.4878   -1222.9607    71.319801   -1151.6409        21.72 
   89900    1970.4465   -1223.1686    73.098956   -1150.0696        21.72 
   90000    1851.1576   -1218.6473    68.673619   -1149.9737        21.72 
   90100    2041.1716   -1223.2951    75.722694   -1147.5724        21.72 
   90200    2103.5162   -1226.3922    78.035533   -1148.3566        21.72 
   90300    1991.2867   -1224.1688    73.872081   -1150.2967        21.72 
   90400    1836.0689   -1221.2093    68.113861   -1153.0954        21.72 
   90500    1770.1669   -1221.3159    65.669052   -1155.6468        21.72 
   90600     2029.223   -1229.1081    75.279427   -1153.8287        21.72 
   90700    1895.3756   -1225.5628    70.314003   -1155.2487        21.72 
   90800    1685.8835    -1222.402    62.542336   -1159.8597        21.72 
   90900    1776.7953   -1228.1001    65.914949   -1162.1852        21.72 
   91000    1849.4769   -1228.9353    68.611267    -1160.324        21.72 
   91100    1715.9787   -1221.3014    63.658799   -1157.6426        21.72 
   91200    1897.1379   -1227.0697    70.379379   -1156.6904        21.72 
   91300    1885.0127   -1227.9357    69.929564   -1158.0062        21.72 
   91400    1771.7452   -1222.8745    65.727604   -1157.1469        21.72 
   91500    1934.2348   -1224.3988    71.755588   -1152.6432        21.72 
   91600    1901.8688   -1224.0817    70.554884   -1153.5268        21.72 
   91700    1940.3285   -1222.3071    71.981648   -1150.3255        21.72 
   91800    1938.8682   -1223.2607    71.927475   -1151.3332        21.72 
   91900    1962.4732    -1218.528    72.803166   -1145.7248        21.72 
   92000    1946.1015   -1214.9164    72.195814   -1142.7206        21.72 
   92100    1936.8696   -1218.8222    71.853333   -1146.9689        21.72 
   92200    2095.3051   -1223.6273     77.73092   -1145.8964        21.72 
   92300    2005.3181   -1222.2141    74.392613   -1147.8215        21.72 
   92400    2027.6306   -1221.2608    75.220355   -1146.0404        21.72 
   92500    2078.6538   -1222.5997    77.113194   -1145.4865        21.72 
   92600    1999.0308   -1220.1945    74.159368   -1146.0351        21.72 
   92700    2052.0064   -1225.9231    76.124637   -1149.7984        21.72 
   92800    2017.2789   -1224.3988    74.836331   -1149.5625        21.72 
   92900    1929.1417   -1222.7266    71.566645     -1151.16        21.72 
   93000    1974.8642   -1220.2147    73.262843   -1146.9518        21.72 
   93100    1958.2058   -1218.7818    72.644857    -1146.137        21.72 
   93200    1889.4765   -1216.1134    70.095161   -1146.0182        21.72 
   93300    1920.0395   -1220.4301    71.228975   -1149.2012        21.72 
   93400    2005.9882    -1223.853    74.417472   -1149.4356        21.72 
   93500    2066.3663   -1223.6047    76.657357   -1146.9474        21.72 
   93600    1926.2531   -1219.4055    71.459487    -1147.946        21.72 
   93700    1883.8268   -1216.4928     69.88557   -1146.6073        21.72 
   93800    1929.7527   -1215.1336    71.589312   -1143.5443        21.72 
   93900    1923.4297   -1216.5934    71.354743   -1145.2387        21.72 
   94000    1928.0583   -1219.0858    71.526455   -1147.5593        21.72 
   94100    1896.3897    -1215.876    70.351624   -1145.5243        21.72 
   94200    2037.0571   -1218.9568    75.570054   -1143.3867        21.72 
   94300    2160.9906    -1224.677    80.167697   -1144.5093        21.72 
   94400    1854.0439   -1213.0503    68.780695   -1144.2696        21.72 
   94500    1902.1731   -1214.5772    70.566175    -1144.011        21.72 
   94600    1959.4798   -1218.1912    72.692117   -1145.4991        21.72 
   94700    1827.9286   -1215.4267    67.811878   -1147.6148        21.72 
   94800    1848.8645   -1215.8474    68.588548   -1147.2589        21.72 
   94900    1908.1339   -1221.3525    70.787307   -1150.5651        21.72 
   95000    1983.6945   -1218.5707    73.590427   -1144.9803        21.72 
   95100    1930.3043    -1214.559    71.609776   -1142.9492        21.72 
   95200    1958.0617   -1214.6963    72.639511   -1142.0568        21.72 
   95300    1786.2614   -1209.8784    66.266122   -1143.6122        21.72 
   95400    1942.2855   -1215.2397    72.054251   -1143.1855        21.72 
   95500    2065.2218    -1219.145    76.614901   -1142.5301        21.72 
   95600    1954.9414   -1216.8191    72.523753   -1144.2954        21.72 
   95700    2008.7551   -1216.9463    74.520118   -1142.4261        21.72 
   95800    2021.4576   -1215.0228     74.99135   -1140.0315        21.72 
   95900    1958.7762   -1217.4455    72.666018   -1144.7794        21.72 
   96000    1862.3239   -1216.5225    69.087861   -1147.4347        21.72 
   96100    1771.7776   -1212.6104    65.728806   -1146.8816        21.72 
   96200    1941.3677   -1216.8748    72.020201   -1144.8546        21.72 
   96300    1842.4311   -1213.6376    68.349884   -1145.2878        21.72 
   96400    1901.1937   -1214.7307    70.529841   -1144.2008        21.72 
   96500    1881.1274   -1219.0006    69.785428   -1149.2152        21.72 
   96600    1759.3745    -1217.778     65.26868   -1152.5094        21.72 
   96700    1839.5731   -1217.7629    68.243862    -1149.519        21.72 
   96800    1907.6262   -1217.4071    70.768472   -1146.6386        21.72 
   96900    1907.8408   -1216.8757    70.776431   -1146.0993        21.72 
   97000    1831.8802   -1211.9669     67.95847   -1144.0085        21.72 
   97100    1796.9312   -1212.9624    66.661945   -1146.3005        21.72 
   97200    1959.6839   -1216.9002    72.699692   -1144.2005        21.72 
   97300    1998.0522    -1219.384    74.123066    -1145.261        21.72 
   97400    1864.8375   -1218.4802     69.18111   -1149.2991        21.72 
   97500    1947.6681   -1221.1289    72.253933    -1148.875        21.72 
   97600    1916.9406   -1221.1039    71.114013   -1149.9899        21.72 
   97700    1881.8941   -1220.6281     69.81387   -1150.8142        21.72 
   97800    1800.4074   -1219.9228    66.790906   -1153.1319        21.72 
   97900    1836.4802   -1222.0572    68.129122   -1153.9281        21.72 
   98000    1929.7015   -1221.7646    71.587414   -1150.1772        21.72 
   98100    1849.7001   -1218.0755    68.619547    -1149.456        21.72 
   98200    1896.3472   -1218.6407    70.350046   -1148.2906        21.72 
   98300    1993.2855   -1218.7369    73.946233   -1144.7907        21.72 
   98400    1921.6525   -1213.5551    71.288813   -1142.2662        21.72 
   98500    1954.9791   -1213.2105    72.525152   -1140.6854        21.72 
   98600    2058.7118   -1213.6378    76.373395   -1137.2644        21.72 
   98700     2012.009    -1212.299    74.640827   -1137.6582        21.72 
   98800    2003.0347   -1211.1806    74.307903   -1136.8727        21.72 
   98900    2205.0325   -1218.2258    81.801551   -1136.4242        21.72 
   99000    2069.0382   -1212.1888    76.756479   -1135.4323        21.72 
   99100    2049.0774   -1212.3315    76.015979   -1136.3155        21.72 
   99200    2126.7037    -1213.333    78.895735   -1134.4372        21.72 
   99300    1922.4467   -1211.8361    71.318278   -1140.5179        21.72 
   99400    2038.9476   -1216.6788    75.640188   -1141.0386        21.72 
   99500    1806.4386   -1210.5504    67.014649   -1143.5358        21.72 
   99600    1877.7772   -1214.3467    69.661145   -1144.6856        21.72 
   99700    1914.4177   -1216.7085    71.020422    -1145.688        21.72 
   99800    1966.5518   -1218.7808    72.954472   -1145.8263        21.72 
   99900     1927.688   -1216.2688    71.512717   -1144.7561        21.72 
  100000    1963.9871   -1216.8768     72.85933   -1144.0175        21.72 
  100100    1905.9259   -1213.9264    70.705393    -1143.221        21.72 
  100200    1927.2871   -1213.3478    71.497844     -1141.85        21.72 
  100300    1957.3038   -1212.3235    72.611393   -1139.7121        21.72 
  100400    1996.5724   -1213.4531    74.068167   -1139.3849        21.72 
  100500    2021.9505   -1215.5338    75.009637   -1140.5242        21.72 
  100600    1852.0621   -1212.9959    68.707173   -1144.2887        21.72 
  100700    1841.0652   -1210.2252    68.299215    -1141.926        21.72 
  100800    2051.2351   -1216.5609    76.096025   -1140.4649        21.72 
  100900    1890.3068   -1216.3334    70.125961   -1146.2074        21.72 
  101000    1784.1737   -1214.0916    66.188671    -1147.903        21.72 
  101100    1681.0297   -1214.0716    62.362271   -1151.7094        21.72 
  101200     1840.488   -1215.7084    68.277802   -1147.4306        21.72 
  101300    1845.4402   -1215.9684    68.461517   -1147.5069        21.72 
  101400    1853.4165   -1214.5655    68.757419   -1145.8081        21.72 
[...]
  762000    915.06071   -1254.8796    33.946613    -1220.933        21.72 
  762100    875.11646   -1253.8271    32.464774   -1221.3623        21.72 
  762200    907.32115   -1253.4343    33.659493   -1219.7748        21.72 
  762300    931.56074   -1253.1089    34.558725   -1218.5502        21.72 
  762400    928.43053   -1252.6031    34.442602   -1218.1604        21.72 
  762500    879.31518   -1251.3287    32.620537   -1218.7082        21.72 
  762600    900.22152   -1252.5977    33.396113   -1219.2015        21.72 
  762700    961.79191    -1253.676    35.680231   -1217.9958        21.72 
  762800     953.0294   -1251.7769    35.355162   -1216.4217        21.72 
  762900    905.95062   -1249.2876    33.608649   -1215.6789        21.72 
  763000    944.69727   -1250.3712     35.04606   -1215.3252        21.72 
  763100    966.53088   -1250.9923    35.856036   -1215.1363        21.72 
  763200    907.45464    -1247.148    33.664445   -1213.4835        21.72 
  763300     964.0867   -1248.2205    35.765362   -1212.4551        21.72 
  763400    924.64968   -1249.4463    34.302341    -1215.144        21.72 
  763500    936.55242   -1249.7448    34.743905   -1215.0009        21.72 
  763600    960.40622   -1249.9532    35.628825   -1214.3243        21.72 
  763700    948.80955    -1250.101    35.198616   -1214.9024        21.72 
  763800    854.76022   -1248.7428    31.709605   -1217.0332        21.72 
  763900    922.26734   -1251.5893    34.213962   -1217.3754        21.72 
  764000    912.59746    -1250.731    33.855232   -1216.8758        21.72 
  764100      896.916    -1248.796    33.273486   -1215.5225        21.72 
  764200    1020.0612   -1251.7957    37.841884   -1213.9538        21.72 
  764300    993.08962   -1249.4824    36.841303   -1212.6411        21.72 
  764400    925.50407   -1248.2091    34.334037   -1213.8751        21.72 
  764500    965.13396   -1249.6257    35.804213   -1213.8215        21.72 
  764600    966.34024    -1251.533    35.848963    -1215.684        21.72 
  764700    927.85157   -1250.8544    34.421124   -1216.4333        21.72 
  764800    883.49891   -1249.8777    32.775744   -1217.1019        21.72 
  764900    988.34669   -1250.8305    36.665351   -1214.1651        21.72 
  765000     940.3805   -1248.0256    34.885918   -1213.1397        21.72 
  765100    902.17652    -1248.887    33.468639   -1215.4184        21.72 
  765200    919.97303   -1250.9653    34.128848   -1216.8365        21.72 
  765300    830.82257   -1249.3338    30.821575   -1218.5122        21.72 
  765400    812.20622   -1249.5905    30.130951   -1219.4595        21.72 
  765500    866.29665   -1251.5521     32.13758   -1219.4145        21.72 
  765600    808.63136   -1249.9609    29.998333   -1219.9625        21.72 
  765700    841.00765   -1250.6993    31.199417   -1219.4999        21.72 
  765800    975.20237    -1254.905    36.177728   -1218.7272        21.72 
  765900    925.77163   -1252.9808    34.343963   -1218.6369        21.72 
  766000    913.72035   -1251.4962    33.896888   -1217.5993        21.72 
  766100    934.15831   -1251.3159    34.655089   -1216.6608        21.72 
  766200    897.20151   -1250.7375    33.284078   -1217.4534        21.72 
  766300    902.18647   -1250.1475    33.469008   -1216.6785        21.72 
  766400    900.72796   -1251.3117    33.414901   -1217.8968        21.72 
  766500    865.34928   -1250.7964    32.102435    -1218.694        21.72 
  766600    937.93204   -1251.4834    34.795085   -1216.6883        21.72 
  766700    888.19293   -1250.3437    32.949881   -1217.3939        21.72 
  766800     917.2057   -1250.8225    34.026187   -1216.7963        21.72 
  766900    943.18616   -1252.3538    34.990001   -1217.3638        21.72 
  767000     885.2747   -1251.2886    32.841621    -1218.447        21.72 
  767100     876.7434   -1250.9738     32.52513   -1218.4487        21.72 
  767200    842.02587   -1251.3555    31.237191   -1220.1183        21.72 
  767300     849.6342   -1251.6107    31.519442   -1220.0913        21.72 
  767400    861.43998   -1252.2073    31.957409   -1220.2499        21.72 
  767500     888.3558   -1252.5911    32.955923   -1219.6352        21.72 
  767600    891.13637   -1253.4862    33.059076   -1220.4271        21.72 
  767700    924.36157   -1252.6795    34.291653   -1218.3878        21.72 
  767800    886.33586   -1251.8518    32.880988   -1218.9709        21.72 
  767900    896.37503   -1251.8934    33.253417     -1218.64        21.72 
  768000    922.27518   -1252.3465    34.214252   -1218.1322        21.72 
  768100    907.07691   -1252.3978    33.650432   -1218.7474        21.72 
  768200    892.99185   -1253.4993    33.127909   -1220.3714        21.72 
  768300    898.05356    -1254.027    33.315687   -1220.7113        21.72 
  768400    880.80761   -1253.1871    32.675903   -1220.5112        21.72 
  768500    889.13746   -1253.5936     32.98492   -1220.6087        21.72 
  768600    918.74482   -1254.9332    34.083284   -1220.8499        21.72 
  768700    839.17119   -1251.6703    31.131289    -1220.539        21.72 
  768800    841.10301   -1251.1655    31.202955   -1219.9625        21.72 
  768900    863.00342   -1252.9558    32.015409   -1220.9403        21.72 
  769000    852.19179   -1253.2236    31.614323   -1221.6093        21.72 
  769100    812.19165   -1251.8653    30.130411   -1221.7349        21.72 
  769200    817.67022   -1252.9658    30.333653   -1222.6322        21.72 
  769300    796.27423   -1252.6124    29.539912   -1223.0724        21.72 
  769400    759.55824   -1252.1555    28.177835   -1223.9776        21.72 
  769500    850.62649   -1254.7159    31.556254   -1223.1596        21.72 
  769600    865.76306   -1255.0145    32.117785   -1222.8968        21.72 
  769700    854.80424   -1256.3927    31.711239   -1224.6814        21.72 
  769800    796.46188   -1253.9044    29.546873   -1224.3576        21.72 
  769900     809.9988   -1253.1839    30.049061   -1223.1348        21.72 
  770000     841.8569     -1254.68    31.230922   -1223.4491        21.72 
  770100     821.2135   -1253.7639    30.465101   -1223.2988        21.72 
  770200    876.33481   -1253.6242    32.509972   -1221.1142        21.72 
  770300    831.80961    -1252.173    30.858191   -1221.3148        21.72 
  770400    851.92314   -1253.0482    31.604356   -1221.4438        21.72 
  770500    889.94003   -1253.5832    33.014694   -1220.5685        21.72 
  770600    879.23469   -1254.1924    32.617551   -1221.5748        21.72 
  770700    891.70109   -1253.4823    33.080025   -1220.4022        21.72 
  770800    802.16461   -1249.7956    29.758431   -1220.0372        21.72 
  770900     825.0222   -1249.9514    30.606394    -1219.345        21.72 
  771000    854.99424   -1251.8826    31.718287   -1220.1643        21.72 
  771100    841.50722   -1250.8655     31.21795   -1219.6476        21.72 
  771200    901.74382    -1250.853    33.452587   -1217.4004        21.72 
  771300    940.20218   -1251.7238    34.879302   -1216.8445        21.72 
  771400    928.93553   -1250.6851    34.461336   -1216.2237        21.72 
  771500    915.82266   -1251.1424    33.974879   -1217.1675        21.72 
  771600    914.07091   -1251.9543    33.909893   -1218.0444        21.72 
  771700    881.64604   -1250.2904    32.707006   -1217.5834        21.72 
  771800    864.54573   -1250.2313    32.072625   -1218.1587        21.72 
  771900    936.62222   -1252.5827    34.746494   -1217.8362        21.72 
  772000    900.46099   -1251.6965    33.404997   -1218.2915        21.72 
  772100    866.74689   -1252.0447    32.154283   -1219.8904        21.72 
  772200     892.6659   -1253.1045    33.115818   -1219.9887        21.72 
  772300     833.3857   -1252.4334    30.916661   -1221.5167        21.72 
  772400    899.56734   -1253.2271    33.371845   -1219.8552        21.72 
  772500    857.16445   -1253.0036    31.798797   -1221.2048        21.72 
  772600    893.13152   -1254.6584    33.133091   -1221.5253        21.72 
  772700    828.49137   -1253.6392    30.735093   -1222.9041        21.72 
  772800    838.58062   -1254.8991     31.10938   -1223.7897        21.72 
  772900    895.40875   -1255.2445    33.217571    -1222.027        21.72 
  773000    831.53709   -1253.0387    30.848081   -1222.1906        21.72 
  773100    878.46802   -1253.9378    32.589109   -1221.3487        21.72 
  773200    884.57542   -1254.0129     32.81568   -1221.1972        21.72 
  773300    857.33013    -1252.926    31.804943   -1221.1211        21.72 
  773400    841.32835   -1252.6365    31.211315   -1221.4252        21.72 
  773500    795.92127   -1251.5273    29.526818   -1222.0005        21.72 
  773600    891.38899   -1253.4965    33.068447   -1220.4281        21.72 
  773700    923.23433   -1256.1254    34.249835   -1221.8756        21.72 
  773800    906.63523   -1254.8181    33.634047   -1221.1841        21.72 
  773900    863.54431   -1252.2098    32.035475   -1220.1743        21.72 
  774000    928.39922    -1253.436     34.44144   -1218.9945        21.72 
  774100     863.8934   -1252.1405    32.048425    -1220.092        21.72 
  774200    793.62477     -1249.94    29.441623   -1220.4984        21.72 
  774300    919.27285   -1252.5751    34.102873   -1218.4722        21.72 
  774400    902.91674   -1252.6743      33.4961   -1219.1782        21.72 
  774500    852.34371   -1251.3868    31.619958   -1219.7668        21.72 
  774600    879.42403   -1253.6121    32.624575   -1220.9875        21.72 
  774700    832.58314   -1252.5967    30.886888   -1221.7098        21.72 
  774800    845.29422   -1250.4509    31.358439   -1219.0924        21.72 
  774900    819.95859   -1250.7919    30.418546   -1220.3734        21.72 
  775000    925.44917   -1253.1373       34.332   -1218.8053        21.72 
  775100    858.10542   -1251.7481    31.833704   -1219.9144        21.72 
  775200     851.8776   -1250.6198    31.602667   -1219.0171        21.72 
  775300    863.22766   -1250.6641    32.023728   -1218.6403        21.72 
  775400    943.62473   -1252.3429    35.006271   -1217.3367        21.72 
  775500    915.53204   -1252.6583    33.964098   -1218.6942        21.72 
  775600    931.36548   -1253.3594    34.551481   -1218.8079        21.72 
  775700    891.62162   -1252.5095    33.077077   -1219.4325        21.72 
  775800    868.44704   -1251.6151    32.217354   -1219.3978        21.72 
  775900    855.15679   -1251.1392    31.724317   -1219.4149        21.72 
  776000    855.08776   -1251.7103    31.721757   -1219.9886        21.72 
  776100     912.4642   -1253.0421    33.850288   -1219.1918        21.72 
  776200    864.44922   -1252.2802    32.069045   -1220.2111        21.72 
  776300    887.57453   -1252.9016     32.92694   -1219.9747        21.72 
  776400    913.01908   -1254.6467    33.870873   -1220.7758        21.72 
  776500    891.72224   -1254.5328     33.08081    -1221.452        21.72 
  776600    849.83875   -1251.5857     31.52703   -1220.0587        21.72 
  776700    859.97943   -1252.6461    31.903226   -1220.7428        21.72 
  776800    846.02034   -1253.7775    31.385376   -1222.3921        21.72 
  776900    865.58571   -1254.1255    32.111206   -1222.0143        21.72 
  777000    846.36491    -1253.728    31.398159   -1222.3299        21.72 
  777100    868.37987     -1252.89    32.214863   -1220.6752        21.72 
  777200    845.65355   -1252.9092    31.371769   -1221.5374        21.72 
  777300    843.55944   -1252.6272    31.294083   -1221.3332        21.72 
  777400    882.81958    -1251.702    32.750542   -1218.9514        21.72 
  777500    867.01485   -1252.2011    32.164224   -1220.0368        21.72 
  777600    939.93057   -1253.1372    34.869226    -1218.268        21.72 
  777700    933.93096    -1253.213    34.646655   -1218.5663        21.72 
  777800    841.12575   -1251.9311    31.203799   -1220.7273        21.72 
  777900    865.46184   -1252.3986    32.106611   -1220.2919        21.72 
  778000    846.58581   -1252.6567    31.406354   -1221.2504        21.72 
  778100    879.15835   -1252.6445    32.614719   -1220.0298        21.72 
  778200    825.09483   -1251.6081    30.609089    -1220.999        21.72 
  778300    860.80417   -1252.2431    31.933822   -1220.3093        21.72 
  778400    857.64527   -1253.5565    31.816634   -1221.7398        21.72 
  778500    815.93965   -1254.1084    30.269453   -1223.8389        21.72 
  778600    805.86914   -1254.0398    29.895861   -1224.1439        21.72 
  778700    908.59903   -1256.4677    33.706899   -1222.7608        21.72 
  778800    843.35674   -1255.4543    31.286563   -1224.1677        21.72 
  778900    889.62681   -1256.3997    33.003074   -1223.3966        21.72 
  779000    880.48518   -1255.2155    32.663941   -1222.5516        21.72 
  779100    843.84309   -1254.0354    31.304605   -1222.7308        21.72 
  779200    842.54577    -1253.387    31.256478   -1222.1305        21.72 
  779300    851.38581    -1252.228    31.584423   -1220.6436        21.72 
  779400    829.87286   -1251.7498    30.786343   -1220.9634        21.72 
  779500    906.48194   -1255.0181     33.62836   -1221.3897        21.72 
  779600    887.02059    -1254.784     32.90639   -1221.8776        21.72 
  779700    832.17644   -1250.8577      30.8718   -1219.9859        21.72 
  779800    826.97607   -1250.8872    30.678878   -1220.2083        21.72 
  779900    749.12999   -1250.8204    27.790971   -1223.0294        21.72 
  780000     798.3844   -1252.4948    29.618194   -1222.8766        21.72 
  780100    847.20956   -1253.2953    31.429494   -1221.8658        21.72 
  780200    895.72117   -1253.5644    33.229161   -1220.3352        21.72 
  780300    869.24063   -1253.4228    32.246795    -1221.176        21.72 
  780400    877.87214   -1252.9338    32.567004   -1220.3668        21.72 
  780500      858.775   -1253.4528    31.858544   -1221.5942        21.72 
  780600     830.9029   -1252.5579    30.824555   -1221.7333        21.72 
  780700    824.30487   -1252.8087    30.579783   -1222.2289        21.72 
  780800    837.99428   -1253.3468    31.087628   -1222.2592        21.72 
  780900    809.44692   -1252.3623    30.028588   -1222.3337        21.72 
  781000    783.55747   -1251.7455     29.06815   -1222.6774        21.72 
  781100    825.56156   -1251.7067    30.626404   -1221.0803        21.72 
  781200    795.45582   -1251.7931    29.509551   -1222.2836        21.72 
  781300     811.1527   -1252.5253    30.091868   -1222.4334        21.72 
  781400    825.17843   -1253.8032     30.61219    -1223.191        21.72 
  781500    854.87556   -1254.6495    31.713884   -1222.9356        21.72 
  781600    830.42914   -1254.9287    30.806979   -1224.1217        21.72 
  781700    823.12753   -1255.4621    30.536107    -1224.926        21.72 
  781800    860.93774   -1256.8671    31.938777   -1224.9283        21.72 
  781900    854.68423   -1256.4903    31.706786   -1224.7835        21.72 
  782000    848.30727   -1256.1544    31.470216   -1224.6842        21.72 
  782100    845.01177   -1255.2821    31.347961   -1223.9342        21.72 
  782200    853.67645   -1255.0442      31.6694   -1223.3748        21.72 
  782300    909.94268   -1255.7864    33.756746   -1222.0297        21.72 
  782400    766.35078   -1252.3206    28.429822   -1223.8907        21.72 
  782500    791.16258   -1251.7745    29.350282   -1222.4243        21.72 
  782600    849.98135   -1254.6364    31.532321   -1223.1041        21.72 
  782700    897.32865   -1254.5793    33.288795   -1221.2905        21.72 
  782800    828.23718   -1254.7178    30.725663   -1223.9922        21.72 
  782900    829.35377   -1254.6372    30.767086   -1223.8701        21.72 
  783000    813.01914   -1253.5612    30.161109   -1223.4001        21.72 
  783100    743.63897   -1252.8195    27.587267   -1225.2322        21.72 
  783200    758.30479   -1253.0447    28.131334   -1224.9133        21.72 
  783300    792.67396   -1254.0306     29.40635   -1224.6243        21.72 
  783400    874.78791   -1256.1965    32.452586   -1223.7439        21.72 
  783500    844.19452   -1253.9702    31.317643   -1222.6525        21.72 
  783600     810.8566   -1251.4989    30.080884    -1221.418        21.72 
  783700    906.27489   -1252.9169    33.620679   -1219.2962        21.72 
  783800    921.07406   -1252.5761    34.169694   -1218.4064        21.72 
  783900    938.95639   -1251.6684    34.833086   -1216.8353        21.72 
  784000    865.08594   -1251.0333    32.092666   -1218.9406        21.72 
  784100    897.42996   -1253.2718    33.292553   -1219.9793        21.72 
  784200    987.42237   -1254.7489    36.631061   -1218.1178        21.72 
  784300    857.65728   -1249.9519     31.81708   -1218.1349        21.72 
  784400     839.0774   -1250.0967    31.127809   -1218.9689        21.72 
  784500    968.75398   -1254.3733    35.938507   -1218.4348        21.72 
  784600    910.97253   -1251.4472    33.794951   -1217.6522        21.72 
  784700    841.79435   -1250.0935    31.228602   -1218.8649        21.72 
  784800     894.1645   -1251.9707    33.171412   -1218.7993        21.72 
  784900    903.10828   -1252.4816    33.503205   -1218.9784        21.72 
  785000    861.71149   -1250.9542    31.967481   -1218.9867        21.72 
  785100    893.17935    -1251.611    33.134865   -1218.4761        21.72 
  785200    916.88327   -1252.8031    34.014225   -1218.7888        21.72 
  785300    935.56407   -1254.3004    34.707239   -1219.5932        21.72 
  785400    884.12722   -1252.6057    32.799052   -1219.8066        21.72 
  785500    820.13938   -1251.8664    30.425253   -1221.4412        21.72 
  785600    891.00961   -1255.1351    33.054373   -1222.0807        21.72 
  785700    926.76435   -1255.5147     34.38079   -1221.1339        21.72 
  785800    827.69561   -1251.7883    30.705572   -1221.0827        21.72 
  785900     828.2174   -1251.3292    30.724929   -1220.6042        21.72 
  786000    873.98116   -1254.1416    32.422657   -1221.7189        21.72 
  786100    826.55708   -1253.2514    30.663335    -1222.588        21.72 
  786200      799.385    -1253.329    29.655314   -1223.6737        21.72 
  786300    876.93102   -1255.9639     32.53209   -1223.4318        21.72 
  786400    852.21297   -1254.5649    31.615109   -1222.9498        21.72 
  786500    886.35739   -1254.0285    32.881786   -1221.1467        21.72 
  786600    833.12693   -1253.2789    30.907061   -1222.3719        21.72 
  786700    889.43634   -1254.9913    32.996008   -1221.9953        21.72 
  786800    882.38605   -1254.2228    32.734459   -1221.4883        21.72 
  786900    824.39161   -1253.1669    30.583001   -1222.5839        21.72 
  787000    858.22215   -1253.9341    31.838035   -1222.0961        21.72 
  787100    852.92349   -1254.7505    31.641467    -1223.109        21.72 
  787200    844.19413   -1255.6913    31.317628   -1224.3737        21.72 
  787300     873.7107   -1256.6438    32.412624   -1224.2312        21.72 
  787400    761.60605   -1253.8664    28.253803   -1225.6126        21.72 
  787500    776.64046   -1255.4138    28.811545   -1226.6023        21.72 
  787600    797.71397   -1256.3002    29.593323   -1226.7069        21.72 
  787700    803.03135   -1257.3133    29.790585   -1227.5227        21.72 
  787800    794.93953   -1256.6771    29.490398   -1227.1867        21.72 
  787900     772.1909   -1255.3374    28.646477   -1226.6909        21.72 
  788000     836.0514   -1255.9321    31.015552   -1224.9165        21.72 
  788100    778.88267   -1255.3548    28.894726     -1226.46        21.72 
  788200    820.87493   -1256.1594    30.452541   -1225.7069        21.72 
  788300    812.24626    -1256.857    30.132437   -1226.7245        21.72 
  788400    756.17416    -1256.554    28.052293   -1228.5017        21.72 
  788500     827.2683    -1257.096    30.689719   -1226.4062        21.72 
  788600    865.89543   -1257.906