LAMMPS (24 Jan 2020)
OMP_NUM_THREADS environment is not set. Defaulting to 1 thread. (src/comm.cpp:94)
  using 1 OpenMP thread(s) per MPI task
# ---------Initialize Simulation---------
clear
OMP_NUM_THREADS environment is not set. Defaulting to 1 thread. (src/comm.cpp:94)
  using 1 OpenMP thread(s) per MPI task
units 		metal
dimension 	3
boundary 	p p p   #p indicates that the boundary (x,y,z) is periodic  s is shrink-wrapped
atom_style 	atomic
atom_modify 	map array

# ---------Create Atoms-------------------
# Si is a diamond lattice
# lattice constant: 5.5 AA

lattice diamond 5.43 orient x 1 0 0 orient y 0 1 0 orient z 0 0 1
Lattice spacing in x,y,z = 5.43 5.43 5.43
region 		CrystallineBox block 0 3 0 3 0 0.45 units lattice
region		AmorphousBox block 0 3 0 3 0.45 4 units lattice
region		PUREAMORPHOUS block 0 3 0 3 1.5 3 units lattice
region		PURECRYSTALLINE block 0 3 0 3 0 0.45 units lattice
region		InterfaceBox union 2 CrystallineBox AmorphousBox
create_box 	1 InterfaceBox
Created orthogonal box = (0 0 0) to (16.29 16.29 21.72)
  2 by 1 by 2 MPI processor grid
mass 		1 28.0855

# ---------Read in the already created amorphous structure --------------
read_dump	aSi.xyz 3850000 x y z box no add yes #3850000 should be whatever the last timestep is in the file
  orthogonal box = (0 0 0) to (16.29 16.29 21.72)
  0 atoms before read
  252 atoms in snapshot
  0 atoms purged
  0 atoms replaced
  0 atoms trimmed
  252 atoms added
  252 atoms after read

# --------- Create the fixed crystalline structure -----------
create_atoms 	1 region CrystallineBox
Created 36 atoms
  create_atoms CPU = 9.1815e-05 secs

# --------- Identify the relevant groups of atoms ------------
group		fixedatoms region CrystallineBox
36 atoms in group fixedatoms
group 		mobileatoms region AmorphousBox
252 atoms in group mobileatoms
group		puremobile region PUREAMORPHOUS
110 atoms in group puremobile
group		purecrystalline region PURECRYSTALLINE
36 atoms in group purecrystalline

# ----------Define interatomic potential --------------
pair_style 	tersoff/mod/c
pair_coeff 	* * potentials/Si.tersoff.modc Si
Reading potential file potentials/Si.tersoff.modc with DATE: 2016-11-09
#neighbor 	4.0 bin
#neigh_modify 	delay 10 check yes

# ---------Define Potential Energy Outputs for Excess Energy Calculation --------------
compute		pe_aSi mobileatoms pe/atom
compute		pe_aSitotal mobileatoms reduce sum c_pe_aSi
variable	pe_aSiAverage equal c_pe_aSitotal/count(mobileatoms)

compute		pe_cSi fixedatoms pe/atom
compute		pe_cSitotal fixedatoms reduce sum c_pe_cSi
variable	pe_cSiAverage equal c_pe_cSitotal/count(fixedatoms)

compute		pe_aSi_pure puremobile pe/atom
compute		pe_aSi_puretotal puremobile reduce sum c_pe_aSi_pure
variable	pe_aSi_pureAverage equal c_pe_aSi_puretotal/count(puremobile)

compute		pe_cSi_pure purecrystalline pe/atom
compute		pe_cSi_puretotal purecrystalline reduce sum c_pe_cSi_pure
variable	pe_cSi_pureAverage equal c_pe_cSi_puretotal/count(purecrystalline)

variable	excessEnergy equal v_pe_aSiAverage-v_pe_cSiAverage
fix		pe_output all ave/time 100 5 10000 v_pe_aSiAverage v_pe_cSiAverage v_pe_aSi_pureAverage v_pe_cSi_pureAverage v_excessEnergy file potentialEnergy_combined.output

# ----------Dump xyz file with atoms and bonds -----------
# Read with Ovito or jmol
dump 		1 all atom 100 aSicSiInterface.xyz
#dump_modify 	1 element Si

# ------- Initialize conditions ----------
#set initial temperature of deposited a-Si to be 1600K, so that we avoid a large strain on the system
velocity  	mobileatoms create 800.0 15046 mom yes rot yes dist gaussian  # mom and rot yes means net linear and angular momentum is zero
timestep 	.0001 #.1 fs

# ------- Display conditions each 1000 step
thermo_style 	custom step temp pe ke etotal
thermo 		100

# --------Run simulation -------------
#Heat the a-Si back up to 1600K rapidly
fix		heat mobileatoms nvt temp 800.0 1600.0 0.1
run		500000
Neighbor list info ...
  update every 1 steps, delay 10 steps, check yes
  max neighbors/atom: 2000, page size: 100000
  master list distance cutoff = 5.20569
  ghost atom cutoff = 5.20569
  binsize = 2.60285, bins = 7 7 9
  1 neighbor lists, perpetual/occasional/extra = 1 0 0
  (1) pair tersoff/mod/c, perpetual
      attributes: full, newton on
      pair build: full/bin/atomonly
      stencil: full/bin/3d
      bin: standard
Per MPI rank memory allocation (min/avg/max) = 4.197 | 4.197 | 4.197 Mbytes
Step Temp PotEng KinEng TotEng 
 3850000    699.65157   -622.57996    25.955437   -596.62452 
 3850100    11911.523   -1081.0697    441.88964   -639.18009 
 3850200    10519.227   -1096.7068    390.23872   -706.46807 
 3850300     8842.643   -1106.9418    328.04138   -778.90043 
 3850400    7322.6318    -1111.065    271.65252   -839.41249 
 3850500    5751.5887   -1098.3773    213.37049   -885.00676 
 3850600    4808.9166   -1100.8668    178.39956   -922.46724 
 3850700    4094.4244   -1103.8447    151.89357   -951.95108 
 3850800    3548.5558   -1106.6424    131.64312   -974.99924 
 3850900    2941.9882   -1103.6459    109.14088   -994.50505 
 3851000    2476.3492   -1101.5115    91.866766   -1009.6447 
 3851100    2393.0004   -1111.4956    88.774718   -1022.7208 
 3851200    2077.7198    -1111.256    77.078545   -1034.1774 
 3851300    2042.3352   -1120.0601     75.76586   -1044.2943 
 3851400    1920.2026   -1125.1488    71.235028   -1053.9138 
 3851500    1714.0321   -1125.9755    63.586583   -1062.3889 
 3851600    1602.8407   -1129.2928    59.461643   -1069.8312 
 3851700    1510.7137   -1132.6101    56.043947   -1076.5662 
 3851800     1477.456   -1137.6411    54.810163    -1082.831 
 3851900    1418.0867   -1141.4164    52.607701   -1088.8087 
 3852000    1372.1771   -1145.3393    50.904562   -1094.4347 
 3852100    1229.4073   -1145.1366    45.608135   -1099.5285 
 3852200    1275.0057   -1151.6131     47.29973   -1104.3134 
 3852300    1302.6509   -1157.3935    48.325302   -1109.0682 
 3852400    1243.8967   -1159.9405     46.14566   -1113.7948 
 3852500    1146.8192   -1160.6913     42.54431    -1118.147 
 3852600     1121.041   -1163.7074    41.587999   -1122.1194 
 3852700    1105.7531   -1167.0047    41.020855   -1125.9838 
 3852800    1021.7617   -1167.4647    37.904969   -1129.5598 
 3852900    1007.7178   -1170.2762    37.383974   -1132.8923 
 3853000    977.13695   -1172.2763    36.249496   -1136.0268 
 3853100    936.50773   -1173.7066    34.742247   -1138.9644 
 3853200    902.72302   -1175.1836    33.488913   -1141.6947 
 3853300    908.51788   -1177.9981    33.703889   -1144.2942 
 3853400    881.93852   -1179.5202    32.717857   -1146.8024 
 3853500    855.01141   -1180.9095    31.718924   -1149.1906 
 3853600    785.45452   -1180.4923    29.138526   -1151.3537 
 3853700    767.48134   -1181.7648    28.471763   -1153.2931 
 3853800    782.95445   -1184.1943    29.045779   -1155.1485 
 3853900    813.71396   -1187.1945    30.186885   -1157.0077 
 3854000    803.39612   -1188.6591    29.804118    -1158.855 
 3854100    793.45553   -1190.0811    29.435345   -1160.6457 
 3854200    811.74053   -1192.5142    30.113676   -1162.4005 
 3854300    794.68602   -1193.6572    29.480993   -1164.1762 
 3854400    724.35508   -1192.6601     26.87188   -1165.7882 
 3854500     736.6628   -1194.6106    27.328467   -1167.2821 
 3854600    722.44182   -1195.5467    26.800902   -1168.7458 
 3854700    670.64626   -1194.9423    24.879408   -1170.0629 
 3854800    650.52086   -1195.3774    24.132803   -1171.2446 
 3854900    650.52589   -1196.4611    24.132989   -1172.3281 
 3855000    676.46286   -1198.4563     25.09519   -1173.3611 
 3855100    665.21201   -1199.0424     24.67781   -1174.3646 
 3855200    617.60479    -1198.171    22.911693   -1175.2593 
 3855300      603.512   -1198.4256    22.388884   -1176.0367 
 3855400     610.2042   -1199.3696    22.637149   -1176.7324 
 3855500    622.81814   -1200.4731    23.105097    -1177.368 
 3855600    647.98162   -1201.9982    24.038603   -1177.9596 
 3855700    650.17174   -1202.6424    24.119851   -1178.5226 
 3855800    628.16626   -1202.3297      23.3035   -1179.0262 
 3855900    636.00332   -1203.0653    23.594236   -1179.4711 
 3856000    621.62324   -1202.9279    23.060768   -1179.8671 
 3856100    605.76197   -1202.6625    22.472353   -1180.1902 
 3856200    649.10141   -1204.5389    24.080144   -1180.4588 
 3856300    667.14904   -1205.4505    24.749669   -1180.7009 
 3856400      623.881   -1204.0491    23.144526   -1180.9046 
 3856500    608.81821   -1203.6311    22.585732   -1181.0454 
 3856600    607.71837   -1203.6671    22.544931   -1181.1222 
 3856700    621.14628    -1204.178    23.043074   -1181.1349 
 3856800    680.64654   -1206.3423    25.250395   -1181.0919 
 3856900    700.24956   -1206.9999    25.977621   -1181.0222 
 3857000    690.45789   -1206.5585    25.614373   -1180.9441 
 3857100    677.95335   -1206.0044    25.150484    -1180.854 
 3857200    691.22152   -1206.3854    25.642702   -1180.7427 
 3857300    663.91704   -1205.2454     24.62977   -1180.6156 
 3857400    622.78741   -1203.5694    23.103956   -1180.4655 
 3857500     689.3816   -1205.8326    25.574445   -1180.2582 
 3857600    706.38605   -1206.2222    26.205271   -1180.0169 
 3857700    669.48817   -1204.6094    24.836446    -1179.773 
 3857800    648.03497   -1203.5585    24.040582   -1179.5179 
 3857900    692.20128   -1204.8937    25.679049   -1179.2147 
 3858000    712.57222   -1205.3171    26.434763   -1178.8824 
 3858100    712.90071   -1204.9925    26.446949   -1178.5456 
 3858200    739.52596   -1205.6431    27.434684   -1178.2084 
 3858300    779.15497   -1206.7827    28.904827   -1177.8778 
 3858400    749.99286    -1205.416    27.822981    -1177.593 
 3858500    750.46934   -1205.1903    27.840658   -1177.3497 
 3858600    761.17737   -1205.3717      28.2379   -1177.1338 
 3858700    764.91964   -1205.3326     28.37673   -1176.9559 
 3858800    775.38709   -1205.5835    28.765048   -1176.8184 
 3858900    744.16343   -1204.3369    27.606723   -1176.7302 
 3859000    745.58266   -1204.3304    27.659373    -1176.671 
 3859100    757.55804   -1204.7422    28.103632   -1176.6385 
 3859200    730.98114   -1203.7554    27.117691   -1176.6378 
 3859300    740.92925   -1204.1413    27.486743   -1176.6546 
 3859400    751.52313   -1204.5731    27.879751   -1176.6934 
 3859500    741.37893    -1204.263    27.503425   -1176.7596 
 3859600    762.33317   -1205.1332    28.280778   -1176.8524 
 3859700    752.53535   -1204.8991    27.917302   -1176.9818 
 3859800    759.21111   -1205.3071    28.164957   -1177.1421 
 3859900    790.48273   -1206.6726    29.325061   -1177.3476 
 3860000    790.97975   -1206.9599    29.343499   -1177.6164 
 3860100     793.5809   -1207.3918    29.439996   -1177.9518 
 3860200    738.79402   -1205.7399    27.407531   -1178.3324 
 3860300    731.10417   -1205.8399    27.122255   -1178.7176 
 3860400    723.12039   -1205.9388    26.826075   -1179.1127 
 3860500    681.68726    -1204.786    25.289003    -1179.497 
 3860600     684.8333    -1205.252    25.405714   -1179.8463 
 3860700    703.03383   -1206.2648    26.080911   -1180.1839 
 3860800    694.69263   -1206.2835    25.771472    -1180.512 
 3860900    700.07465   -1206.7952    25.971133    -1180.824 
 3861000    728.41678   -1208.1557    27.022559   -1181.1332 
 3861100      752.028    -1209.365     27.89848   -1181.4666 
 3861200    708.19828   -1208.0896      26.2725   -1181.8171 
 3861300    693.23291   -1207.8627     25.71732   -1182.1454 
 3861400    718.17492   -1209.1086     26.64261    -1182.466 
 3861500    709.59379   -1209.1132     26.32427   -1182.7889 
 3861600    668.06382    -1207.879    24.783606   -1183.0954 
 3861700    615.59803    -1206.182    22.837247   -1183.3448 
 3861800    642.64022   -1207.3669    23.840449   -1183.5265 
 3861900    728.62575   -1210.7096    27.030312   -1183.6793 
 3862000    720.37732   -1210.5711    26.724314   -1183.8468 
 3862100    647.08833   -1208.0039    24.005464   -1183.9985 
 3862200      662.191   -1208.6699    24.565738   -1184.1041 
 3862300    667.94274   -1208.9523    24.779114   -1184.1732 
 3862400    674.53034   -1209.2331    25.023498   -1184.2096 
 3862500    667.91375   -1208.9928    24.778038   -1184.2147 
 3862600    686.19335   -1209.6438    25.456169   -1184.1876 
 3862700    698.22317   -1210.0392    25.902447   -1184.1368 
 3862800    716.36553   -1210.6467    26.575486   -1184.0712 
 3862900    717.32955   -1210.6139    26.611249   -1184.0027 
 3863000    715.49467   -1210.4772    26.543179    -1183.934 
 3863100    726.67753   -1210.8222    26.958037   -1183.8642 
 3863200    736.41943   -1211.1187    27.319439   -1183.7992 
 3863300      774.058   -1212.4646    28.715742   -1183.7489 
 3863400    750.85943   -1211.5927    27.855129   -1183.7376 
 3863500    682.88905   -1209.0805    25.333587   -1183.7469 
 3863600    703.63235   -1209.8395    26.103115   -1183.7364 
 3863700    757.59681    -1211.822     28.10507    -1183.717 
 3863800    709.28071   -1210.0318    26.312656   -1183.7191 
 3863900    652.02308   -1207.9027    24.188532   -1183.7142 
 3864000     713.7474   -1210.1485     26.47836   -1183.6702 
 3864100    762.07913   -1211.8875    28.271354   -1183.6161 
 3864200    710.63974   -1209.9502    26.363073   -1183.5871 
 3864300    733.11777   -1210.7558    27.196955   -1183.5589 
 3864400    741.68515   -1211.0528    27.514785    -1183.538 
 3864500    710.23357   -1209.8792    26.348005   -1183.5312 
 3864600    690.85348   -1209.1474    25.629048   -1183.5184 
 3864700    737.44734   -1210.8464    27.357572   -1183.4889 
 3864800    740.91622   -1210.9532    27.486259   -1183.4669 
 3864900    718.84898   -1210.1278    26.667616   -1183.4602 
 3865000    678.73558   -1208.6295    25.179503     -1183.45 
 3865100    727.81997   -1210.4169    27.000419   -1183.4165 
 3865200    781.14931   -1212.3645    28.978813   -1183.3856 
 3865300    769.06426   -1211.9271    28.530486   -1183.3966 
 3865400    782.81907   -1212.4897    29.040757   -1183.4489 
 3865500    749.23169     -1211.34    27.794744   -1183.5453 
 3865600    727.68988   -1210.6559    26.995593   -1183.6603 
 3865700    726.96986   -1210.7486    26.968882   -1183.7798 
 3865800    730.00911   -1210.9853    27.081631   -1183.9036 
 3865900    733.62674   -1211.2512    27.215837   -1184.0353 
 3866000    702.81497   -1210.2425    26.072792   -1184.1697 
 3866100    712.33809   -1210.7172    26.426077   -1184.2911 
 3866200    710.49438   -1210.7636     26.35768   -1184.4059 
 3866300    689.57885   -1210.0902    25.581763   -1184.5085 
 3866400    731.41543   -1211.7258    27.133802    -1184.592 
 3866500    766.26039   -1213.1153    28.426469   -1184.6888 
 3866600    736.67579    -1212.142    27.328949    -1184.813 
 3866700     729.3974   -1212.0053    27.058938   -1184.9464 
 3866800    732.45559   -1212.2576     27.17239   -1185.0852 
 3866900    758.43458   -1213.3726    28.136149   -1185.2365 
 3867000    724.74697   -1212.2967    26.886418   -1185.4103 
 3867100    720.33282   -1212.3013    26.722663   -1185.5787 
 3867200    770.71429   -1214.3498    28.591698   -1185.7581 
 3867300    703.48615   -1212.0609    26.097691   -1185.9632 
 3867400      638.062   -1209.8029    23.670608   -1186.1323 
 3867500    660.33647   -1210.7421    24.496939   -1186.2452 
 3867600    694.49226   -1212.0838    25.764039   -1186.3198 
 3867700    708.94765   -1212.6751      26.3003   -1186.3748 
 3867800    724.80454   -1213.3074    26.888553   -1186.4188 
 3867900    761.42841   -1214.7148    28.247214   -1186.4676 
 3868000     736.7901   -1213.8732     27.33319     -1186.54 
 3868100    702.75235   -1212.6882    26.070469   -1186.6178 
 3868200    706.81003   -1212.9013    26.220999   -1186.6803 
 3868300    724.15962   -1213.5964    26.864629   -1186.7317 
 3868400    699.98468   -1212.7473    25.967795   -1186.7795 
 3868500    703.34286   -1212.9022    26.092375   -1186.8098 
 3868600    730.35554   -1213.9209    27.094483   -1186.8264 
 3868700    710.60591   -1213.2051    26.361817   -1186.8433 
 3868800    697.77299   -1212.7351    25.885746   -1186.8494 
 3868900    696.78851   -1212.6858    25.849224   -1186.8365 
 3869000    709.03212   -1213.1066    26.303434   -1186.8032 
 3869100    754.55019     -1214.75    27.992048   -1186.7579 
 3869200    705.07389    -1212.883    26.156592   -1186.7264 
 3869300    688.63825   -1212.2313    25.546869   -1186.6845 
 3869400    719.71675    -1213.317    26.699808   -1186.6172 
 3869500    717.70492   -1213.1661    26.625174    -1186.541 
 3869600    743.95824   -1214.0577    27.599111   -1186.4586 
 3869700    737.86878   -1213.7582    27.373206    -1186.385 
 3869800    721.51946   -1213.0864    26.766685   -1186.3198 
 3869900     741.9662   -1213.7785    27.525211   -1186.2533 
 3870000    709.55169   -1212.5158    26.322708   -1186.1931 
 3870100    677.51597   -1211.2586    25.134258   -1186.1244 
 3870200    650.48823   -1210.1556    24.131592    -1186.024 
 3870300     682.0796   -1211.1787    25.303558   -1185.8752 
 3870400    753.35115   -1213.6312    27.947566   -1185.6836 
 3870500    737.96981   -1212.8705    27.376954   -1185.4935 
 3870600    702.20117   -1211.3709    26.050021   -1185.3209 
 3870700    702.22496   -1211.1853    26.050904   -1185.1344 
 3870800    783.01759   -1213.9728    29.048121   -1184.9247 
 3870900    804.57605    -1214.583     29.84789   -1184.7351 
 3871000    743.25958   -1212.1793    27.573193   -1184.6062 
 3871100    710.29291   -1210.8487    26.350206   -1184.4985 
 3871200    757.20081    -1212.472    28.090379   -1184.3817 
 3871300     771.4649   -1212.8962    28.619544   -1184.2767 
 3871400    739.94845   -1211.6534    27.450357    -1184.203 
 3871500     715.9087   -1210.6986    26.558539     -1184.14 
 3871600    766.99647   -1212.5254    28.453775   -1184.0716 
 3871700    738.16107   -1211.4074     27.38405   -1184.0234 
 3871800    723.27126   -1210.8164    26.831672   -1183.9848 
 3871900    756.14334   -1211.9947     28.05115   -1183.9436 
 3872000    746.71118   -1211.6185    27.701239   -1183.9173 
 3872100    721.96284   -1210.6859    26.783133   -1183.9027 
 3872200    746.19218   -1211.5679    27.681985   -1183.8859 
 3872300    766.80773    -1212.327    28.446774   -1183.8802 
 3872400    799.45618   -1213.5613    29.657955   -1183.9033 
 3872500    787.01276    -1213.176    29.196333   -1183.9797 
 3872600    748.78594    -1211.873    27.778208   -1184.0948 
 3872700    738.11229   -1211.6038     27.38224   -1184.2215 
 3872800    732.21917   -1211.5165    27.163619   -1184.3529 
 3872900    721.06796   -1211.2336    26.749935   -1184.4837 
 3873000    719.57303   -1211.2986    26.694477   -1184.6041 
 3873100    731.66484   -1211.8636    27.143055   -1184.7205 
 3873200    730.39616   -1211.9287     27.09599   -1184.8327 
 3873300    753.92565   -1212.9168    27.968879    -1184.948 
 3873400    732.20881   -1212.2411    27.163235   -1185.0779 
 3873500    703.18004   -1211.2865    26.086335   -1185.2002 
 3873600    737.89782   -1212.6813    27.374284    -1185.307 
 3873700    765.91196   -1213.8375    28.413543    -1185.424 
 3873800    745.48087   -1213.2161    27.655597   -1185.5605 
 3873900    728.21362   -1212.7214    27.015023   -1185.7064 
 3874000    699.49951   -1211.7901    25.949796   -1185.8403 
 3874100    758.60307   -1214.1018      28.1424   -1185.9594 
 3874200    766.89093   -1214.5515     28.44986   -1186.1016 
 3874300    728.50964   -1213.2872    27.026004   -1186.2612 
 3874400    742.78228   -1213.9732    27.555486   -1186.4177 
 3874500     723.1903   -1213.4098    26.828669   -1186.5811 
 3874600    689.97129   -1212.3225    25.596321   -1186.7262 
 3874700    730.87852   -1213.9604    27.113884   -1186.8465 
 3874800    733.37536   -1214.1743    27.206511   -1186.9677 
 3874900    652.11642   -1211.2661    24.191994   -1187.0741 
 3875000    681.60047    -1212.414    25.285784   -1187.1282 
 3875100    722.61997    -1213.956    26.807511   -1187.1485 
 3875200    720.11627   -1213.8726     26.71463    -1187.158 
 3875300    724.61777   -1214.0391    26.881625   -1187.1574 
 3875400     723.5662   -1213.9915    26.842614   -1187.1489 
 3875500     716.4996   -1213.7116     26.58046   -1187.1312 
 3875600    746.20238   -1214.7839    27.682363   -1187.1015 
 3875700    759.55328   -1215.2558    28.177651   -1187.0781 
 3875800    710.00123    -1213.408    26.339385   -1187.0686 
 3875900    698.14983   -1212.9436    25.899726   -1187.0438 
 3876000    738.12503   -1214.3778    27.382712   -1186.9951 
 3876100    693.60348   -1212.6727    25.731067   -1186.9416 
 3876200    686.65037   -1212.3374    25.473123   -1186.8643 
 3876300    721.13398   -1213.5037    26.752385   -1186.7513 
 3876400    678.89128   -1211.8083    25.185279    -1186.623 
 3876500    709.85486   -1212.7969    26.333955    -1186.463 
 3876600    738.62656   -1213.6737    27.401318   -1186.2724 
 3876700    731.26542   -1213.2077    27.128237   -1186.0795 
 3876800    699.77324    -1211.845    25.959951   -1185.8851 
 3876900    708.54271   -1211.9582    26.285278   -1185.6729 
 3877000    719.53942    -1212.126     26.69323   -1185.4327 
 3877100    717.45202   -1211.7965    26.615792   -1185.1808 
 3877200    737.17178   -1212.2594    27.347349   -1184.9121 
 3877300    752.64949   -1212.5575    27.921536    -1184.636 
 3877400    788.05947   -1213.5998    29.235163   -1184.3646 
 3877500    766.39442   -1212.5544    28.431441   -1184.1229 
 3877600    748.57776   -1211.6839    27.770484   -1183.9134 
 3877700    738.17966   -1211.0989    27.384739   -1183.7142 
 3877800    764.27176   -1211.8689    28.352695   -1183.5162 
 3877900    785.54935    -1212.471    29.142044   -1183.3289 
 3878000    738.00207   -1210.5551    27.378151    -1183.177 
 3878100    726.75313   -1209.9956    26.960842   -1183.0347 
 3878200    742.33066   -1210.4217    27.538731   -1182.8829 
 3878300    728.09906   -1209.7429    27.010773   -1182.7321 
 3878400    769.09688   -1211.1068    28.531696   -1182.5751 
 3878500    818.48623   -1212.7952    30.363925   -1182.4313 
 3878600    775.22945   -1211.1011      28.7592   -1182.3419 
 3878700    770.27595   -1210.8632    28.575437   -1182.2878 
 3878800    838.41531   -1213.3645    31.103247   -1182.2613 
 3878900    812.45393   -1212.4476    30.140141   -1182.3075 
 3879000    770.21393   -1210.9818    28.573136   -1182.4086 
 3879100    749.84722   -1210.3463    27.817578   -1182.5287 
 3879200    796.39137   -1212.2081    29.544257   -1182.6639 
 3879300    808.62309   -1212.8462    29.998026   -1182.8482 
 3879400    770.80273   -1211.6732    28.594979   -1183.0782 
 3879500    741.04891   -1210.8125    27.491182   -1183.3214 
 3879600    735.52926   -1210.8462    27.286416   -1183.5598 
 3879700    726.12868   -1210.7303    26.937676   -1183.7926 
 3879800    758.35053   -1212.1512    28.133031   -1184.0182 
 3879900    801.70014   -1214.0136      29.7412   -1184.2724 
 3880000    781.75142   -1213.5766     29.00115   -1184.5754 
 3880100    734.67186   -1212.1419    27.254608   -1184.8873 
 3880200    759.19139   -1213.3615    28.164225   -1185.1972 
 3880300     762.4892   -1213.8095    28.286567    -1185.523 
 3880400    804.18777   -1215.7097    29.833486   -1185.8762 
 3880500    808.45368   -1216.2826    29.991741   -1186.2909 
 3880600    743.09615   -1214.2995    27.567129   -1186.7324 
 3880700     698.9831   -1213.0677    25.930638    -1187.137 
 3880800    731.33016   -1214.6462    27.130639   -1187.5156 
 3880900    704.82286   -1214.0313     26.14728   -1187.8841 
 3881000    702.96373   -1214.2927    26.078311   -1188.2144 
 3881100    713.17704   -1214.9802    26.457201    -1188.523 
 3881200    713.81012   -1215.2898    26.480686   -1188.8091 
 3881300    704.55436   -1215.2106    26.137319   -1189.0733 
 3881400    699.16142   -1215.2418    25.937254   -1189.3046 
 3881500    724.35031   -1216.3839    26.871703   -1189.5122 
 3881600    688.09848   -1215.2282    25.526844   -1189.7014 
 3881700    656.60826   -1214.1997    24.358631    -1189.841 
 3881800    689.71326   -1215.5146    25.586749   -1189.9279 
 3881900    723.54617   -1216.8231    26.841871   -1189.9812 
 3882000    690.90476   -1215.6464    25.630951   -1190.0155 
 3882100    686.32964    -1215.476    25.461225   -1190.0148 
 3882200     689.3903   -1215.5485    25.574768   -1189.9737 
 3882300    685.98516   -1215.3431    25.448445   -1189.8947 
 3882400    701.54576   -1215.8016    26.025707   -1189.7758 
 3882500    681.43778   -1214.9032    25.279748   -1189.6234 
 3882600    722.18467   -1216.2231    26.791363   -1189.4317 
 3882700    752.31497   -1217.1169    27.909126   -1189.2077 
 3882800    733.58798   -1216.2003    27.214399   -1188.9859 
 3882900     693.4916    -1214.491    25.726917   -1188.7641 
 3883000     672.7317   -1213.4744    24.956773   -1188.5176 
 3883100    673.65531   -1213.2196    24.991037   -1188.2286 
 3883200     707.7454   -1214.1396    26.255699   -1187.8839 
 3883300    711.41296   -1213.8911    26.391757   -1187.4993 
 3883400    714.18098   -1213.5883    26.494444   -1187.0939 
 3883500    751.35081   -1214.5298    27.873358   -1186.6565 
 3883600    765.56378    -1214.607    28.400626   -1186.2064 
 3883700    773.26601   -1214.4544    28.686361   -1185.7681 
 3883800    797.98995   -1214.9473    29.603561   -1185.3438 
 3883900    782.04057   -1213.9646    29.011877   -1184.9528 
 3884000    767.55834   -1213.0764     28.47462   -1184.6018 
 3884100    807.49903   -1214.2216    29.956326   -1184.2653 
 3884200    814.02864   -1214.1597    30.198559   -1183.9612 
 3884300    739.09194   -1211.1353    27.418583   -1183.7167 
 3884400    708.13525   -1209.7601    26.270162   -1183.4899 
 3884500    776.99403   -1212.0581    28.824662   -1183.2335 
 3884600     824.7156   -1213.5701     30.59502    -1182.975 
 3884700    822.38806   -1213.2777    30.508674   -1182.7691 
 3884800    809.13081   -1212.6424    30.016861   -1182.6256 
 3884900    778.49921   -1211.4118      28.8805   -1182.5313 
 3885000    806.96044   -1212.4024    29.936346   -1182.4661 
 3885100    859.23011   -1214.3222    31.875428   -1182.4467 
 3885200    819.86515   -1212.9275     30.41508   -1182.5124 
 3885300    738.14861    -1210.007    27.383588   -1182.6234 
 3885400    762.10758   -1211.0027    28.272409   -1182.7303 
 3885500    792.49396   -1212.2522    29.399673   -1182.8526 
 3885600     780.6936   -1211.9688    28.961907   -1183.0069 
 3885700    756.05353   -1211.2284    28.047818   -1183.1806 
 3885800    737.54008   -1210.7151    27.361012   -1183.3541 
 3885900     751.7603   -1211.4082    27.888549   -1183.5196 
 3886000    771.00299   -1212.2949    28.602408   -1183.6925 
 3886100    748.57777   -1211.6484    27.770485   -1183.8779 
 3886200    725.18024   -1210.9576    26.902491   -1184.0551 
 3886300    730.54386   -1211.3156    27.101469   -1184.2141 
 3886400    753.37811   -1212.3115    27.948566   -1184.3629 
 3886500    757.78511   -1212.6284    28.112056   -1184.5163 
 3886600    754.85451   -1212.6765    28.003337   -1184.6732 
 3886700    757.25972   -1212.9256    28.092565    -1184.833 
 3886800    756.49327   -1213.0634    28.064131   -1184.9992 
 3886900     745.9425   -1212.8368    27.672722   -1185.1641 
 3887000    770.07171   -1213.9006     28.56786   -1185.3327 
 3887100     744.9063   -1213.1428    27.634282   -1185.5085 
 3887200    775.04193   -1214.4376    28.752243   -1185.6854 
 3887300    782.59601   -1214.9161    29.032482   -1185.8836 
 3887400    757.37581    -1214.199    28.096872   -1186.1021 
 3887500    701.42751   -1212.3298    26.021321   -1186.3085 
 3887600    738.46212   -1213.8754    27.395218   -1186.4802 
 3887700    789.03871   -1215.9311    29.271491   -1186.6596 
 3887800    715.57522   -1213.3973    26.546167   -1186.8511 
 3887900    722.18502   -1213.8048    26.791375   -1187.0134 
 3888000    720.02556   -1213.8662    26.711265   -1187.1549 
 3888100    707.82178   -1213.5293    26.258533   -1187.2708 
 3888200    705.11459   -1213.5124    26.158103   -1187.3543 
 3888300    722.92816   -1214.2256    26.818944   -1187.4066 
 3888400    722.49633   -1214.2401    26.802924   -1187.4372 
 3888500    706.28642   -1213.6458    26.201575   -1187.4442 
 3888600    728.90043   -1214.4613    27.040502   -1187.4208 
 3888700     764.9116   -1215.7552    28.376432   -1187.3788 
 3888800    805.86037   -1217.2393    29.895535   -1187.3438 
 3888900    791.00053   -1216.6893     29.34427    -1187.345 
 3889000     741.1048    -1214.865    27.493255   -1187.3718 
 3889100    742.40076   -1214.9325    27.541332   -1187.3912 
 3889200    780.34623   -1216.3551     28.94902   -1187.4061 
 3889300     730.4659   -1214.5318    27.098577   -1187.4332 
 3889400    705.06363   -1213.5995    26.156212   -1187.4433 
 3889500    736.80645    -1214.756    27.333796   -1187.4222 
 3889600    739.21444   -1214.8084    27.423127   -1187.3852 
 3889700    736.96984   -1214.6765    27.339858   -1187.3367 
 3889800     741.3168   -1214.7759     27.50112   -1187.2748 
 3889900    734.93748   -1214.4667    27.264462   -1187.2022 
 3890000    762.62969   -1215.4076    28.291778   -1187.1158 
 3890100    739.02967    -1214.446    27.416272   -1187.0298 
 3890200    689.28887   -1212.5069    25.571005   -1186.9359 
 3890300      705.909   -1212.9903    26.187573   -1186.8027 
 3890400    738.97411   -1214.0436    27.414211   -1186.6294 
 3890500    709.96369   -1212.7757    26.337993   -1186.4377 
 3890600    756.27919   -1214.2771     28.05619    -1186.221 
 3890700    856.34778   -1217.7486      31.7685   -1185.9801 
 3890800    788.32111   -1215.0469     29.24487    -1185.802 
 3890900    725.21031   -1212.5695    26.903607   -1185.6659 
 3891000    818.97005   -1215.8956    30.381874   -1185.5137 
 3891100    826.08769   -1216.0368    30.645921   -1185.3909 
 3891200     731.8693   -1212.4728     27.15064   -1185.3222 
 3891300    778.76269   -1214.1386    28.890275   -1185.2483 
 3891400    838.30652   -1216.2831    31.099211   -1185.1839 
 3891500     773.5189   -1213.8698    28.695742   -1185.1741 
 3891600    745.55963   -1212.8384    27.658519   -1185.1799 
 3891700    793.03192   -1214.6016     29.41963    -1185.182 
 3891800    785.94344   -1214.3639    29.156664   -1185.2072 
 3891900    748.79847   -1213.0275    27.778672   -1185.2489 
 3892000    796.80633    -1214.851    29.559652   -1185.2914 
 3892100     783.6001   -1214.4289    29.069731   -1185.3591 
 3892200    803.18912   -1215.2466    29.796438   -1185.4501 
 3892300    801.10367   -1215.2949    29.719073   -1185.5758 
 3892400    764.46069   -1214.0875    28.359704   -1185.7278 
 3892500     771.1079   -1214.4893      28.6063    -1185.883 
 3892600    775.29795   -1214.8136    28.761741   -1186.0518 
 3892700    728.41276   -1213.2435     27.02241   -1186.2211 
 3892800    741.54673   -1213.8788     27.50965   -1186.3691 
 3892900    783.01992   -1215.5596    29.048208   -1186.5114 
 3893000    799.14222   -1216.3223    29.646308    -1186.676 
 3893100    805.83708   -1216.7676    29.894671   -1186.8729 
 3893200     807.9284   -1217.0797    29.972254   -1187.1074 
 3893300    753.55499   -1215.3204    27.955128   -1187.3653 
 3893400    762.88075   -1215.9148    28.301092   -1187.6137 
 3893500    778.70474   -1216.7606    28.888125   -1187.8725 
 3893600    735.57644   -1215.4209    27.288166   -1188.1328 
 3893700    747.13298   -1216.0894    27.716887   -1188.3725 
 3893800    746.39903   -1216.2954    27.689659   -1188.6057 
 3893900    730.09662   -1215.9073    27.084877   -1188.8224 
 3894000    743.18337   -1216.5885    27.570365   -1189.0182 
 3894100    749.09835   -1216.9948    27.789797    -1189.205 
 3894200    694.27428   -1215.1281    25.755952   -1189.3722 
 3894300    669.36499    -1214.318    24.831876   -1189.4862 
 3894400    717.31094   -1216.1549    26.610558   -1189.5444 
 3894500    739.82592    -1217.019    27.445812   -1189.5732 
 3894600    711.09227   -1215.9627    26.379861   -1189.5829 
 3894700    722.15562   -1216.3494    26.790285   -1189.5591 
 3894800    760.52186    -1217.721    28.213583   -1189.5074 
 3894900    730.94492   -1216.5657    27.116347   -1189.4494 
 3895000    719.34957   -1216.0589    26.686187   -1189.3727 
 3895100    758.60593   -1217.4084    28.142506   -1189.2659 
 3895200    740.88454   -1216.6348    27.485084   -1189.1497 
 3895300    721.59253   -1215.7917    26.769395   -1189.0223 
 3895400    731.97127   -1216.0217    27.154422   -1188.8672 
 3895500    743.79983   -1216.2806    27.593234   -1188.6873 
 3895600    720.50789   -1215.2209    26.729158   -1188.4917 
 3895700    711.62113   -1214.6736     26.39948   -1188.2741 
 3895800    730.91566   -1215.1336    27.115262   -1188.0183 
 3895900    725.67643   -1214.6565    26.920899   -1187.7356 
 3896000    743.84304   -1215.0218    27.594837    -1187.427 
 3896100    780.87328   -1216.0606    28.968573    -1187.092 
 3896200    795.16425   -1216.2553    29.498734   -1186.7566 
 3896300    743.67182   -1214.0369    27.588486   -1186.4484 
 3896400    766.55751    -1214.579    28.437491   -1186.1415 
 3896500    797.73639   -1215.4133    29.594154   -1185.8191 
 3896600    778.35448   -1214.3942    28.875131   -1185.5191 
 3896700    755.07221   -1213.2497    28.011413   -1185.2382 
 3896800    771.74537   -1213.5851    28.629949   -1184.9551 
 3896900    786.37155   -1213.8411    29.172546   -1184.6686 
 3897000    772.11207   -1213.0414    28.643552   -1184.3978 
 3897100    776.54355   -1212.9442     28.80795   -1184.1362 
 3897200    802.19716   -1213.6396    29.759639   -1183.8799 
 3897300    842.41362   -1214.8934    31.251575   -1183.6419 
 3897400    797.47126   -1213.0421    29.584319   -1183.4578 
 3897500    760.76686   -1211.5326    28.222671   -1183.3099 
 3897600    772.62209   -1211.8263    28.662473   -1183.1639 
 3897700    819.12797   -1213.4057    30.387732   -1183.0179 
 3897800    776.30463   -1211.7036    28.799086   -1182.9045 
 3897900    775.58807   -1211.5795    28.772504    -1182.807 
 3898000    843.90657   -1214.0231    31.306961   -1182.7161 
 3898100    864.40575   -1214.7473    32.067432   -1182.6799 
 3898200    811.65623   -1212.8274    30.110548   -1182.7169 
 3898300    839.48052   -1213.9386    31.142764   -1182.7959 
 3898400    834.80204   -1213.9031    30.969203   -1182.9339 
 3898500    763.52814   -1211.4358    28.325109   -1183.1107 
 3898600    772.09249    -1211.925    28.642826   -1183.2822 
 3898700    824.93431   -1214.0728    30.603134   -1183.4697 
 3898800    801.59728   -1213.4395    29.737385   -1183.7021 
 3898900    773.52458   -1212.6416    28.695953   -1183.9457 
 3899000    819.52065   -1214.6099      30.4023   -1184.2076 
 3899100    793.88437   -1213.9553    29.451254   -1184.5041 
 3899200    819.44533   -1215.2236    30.399506   -1184.8241 
 3899300    811.42362   -1215.2885    30.101919   -1185.1865 
 3899400    776.61793   -1214.3813    28.810709   -1185.5706 
 3899500    751.20074   -1213.8053    27.867791   -1185.9375 
 3899600    805.97468   -1216.2078    29.899776    -1186.308 
 3899700    774.80091   -1215.4521    28.743302   -1186.7088 
 3899800     739.2528   -1214.5117     27.42455   -1187.0872 
 3899900    729.86314   -1214.5154    27.076216   -1187.4391 
 3900000    701.33864   -1213.7673    26.018024   -1187.7492 
 3900100    711.06551   -1214.3896    26.378868   -1188.0107 
 3900200     724.8656   -1215.1282    26.890819   -1188.2373 
 3900300    715.74775   -1214.9837    26.552568   -1188.4311 
 3900400    726.57086   -1215.5426     26.95408   -1188.5885 
 3900500    743.12865   -1216.2872    27.568335   -1188.7188 
 3900600    724.82833   -1215.7178    26.889436   -1188.8284 
 3900700    694.27603   -1214.6569    25.756017   -1188.9009 
 3900800    764.45694   -1217.2886    28.359565   -1188.9291 
 3900900    797.66068   -1218.5444    29.591346    -1188.953 
 3901000    754.44387    -1216.979    27.988104   -1188.9909 
 3901100    734.34195     -1216.26    27.242369   -1189.0176 
 3901200    747.85004    -1216.763    27.743488   -1189.0195 
 3901300    773.66577   -1217.7065    28.701191   -1189.0053 
 3901400    757.49603   -1217.0914    28.101331   -1188.9901 
 3901500    746.08681   -1216.6433    27.678076   -1188.9652 
 3901600    753.85365   -1216.8894    27.966208   -1188.9232 
 3901700    753.39572   -1216.8164     27.94922   -1188.8672 
 3901800    732.40423   -1215.9679    27.170484   -1188.7974 
 3901900    723.38854   -1215.5382    26.836023   -1188.7022 
 3902000    729.87204   -1215.6498    27.076546   -1188.5733 
 3902100     790.8067   -1217.7482    29.337079   -1188.4111 
 3902200     749.6128   -1216.0602    27.808882   -1188.2514 
 3902300    733.91979   -1215.3135    27.226708   -1188.0868 
 3902400    819.17091   -1218.2796    30.389325   -1187.8902 
 3902500    803.60563   -1217.5228     29.81189   -1187.7109 
 3902600    764.43627   -1215.9201    28.358798   -1187.5613 
 3902700    796.52083    -1216.961     29.54906    -1187.412 
 3902800    792.30226   -1216.6643    29.392561   -1187.2718 
 3902900    768.98647   -1215.6757      28.5276   -1187.1481 
 3903000    764.20782   -1215.3753    28.350323    -1187.025 
 3903100    776.56514   -1215.7028    28.808751   -1186.8941 
 3903200    731.49305   -1213.8996    27.136682    -1186.763 
 3903300    729.46353   -1213.6739    27.061391   -1186.6125 
 3903400    829.67233   -1217.2019    30.778904    -1186.423 
 3903500     814.6116   -1216.4743    30.220186   -1186.2541 
 3903600    770.32391   -1214.7007    28.577216   -1186.1235 
 3903700    836.97039    -1217.045    31.049644   -1185.9953 
 3903800    842.41326   -1217.1561    31.251562   -1185.9045 
 3903900    781.65536   -1214.8625    28.997586   -1185.8649 
 3904000     802.5776   -1215.6115    29.773752   -1185.8378 
 3904100    827.41173   -1216.5265    30.695041   -1185.8315 
 3904200     754.0093   -1213.8296    27.971982   -1185.8577 
 3904300    726.83386   -1212.8337    26.963837   -1185.8699 
 3904400    795.19454   -1215.3535    29.499858   -1185.8536 
 3904500    791.14859   -1215.1948    29.349763   -1185.8451 
 3904600    777.44635   -1214.6897    28.841442   -1185.8482 
 3904700     750.4264   -1213.6897    27.839065   -1185.8507 
 3904800    782.25486   -1214.8589    29.019826   -1185.8391 
 3904900    791.90849   -1215.2073    29.377953   -1185.8294 
 3905000    777.47187   -1214.6719    28.842388   -1185.8295 
 3905100    797.93244   -1215.4349    29.601428   -1185.8335 
 3905200     778.8518   -1214.7438    28.893581   -1185.8503 
 3905300     751.5952   -1213.7504    27.882424    -1185.868 
 3905400     768.5013   -1214.3797    28.509601   -1185.8701 
 3905500    805.97821   -1215.7667    29.899907   -1185.8668 
 3905600    812.44346   -1216.0234    30.139752   -1185.8836 
 3905700    796.32617   -1215.4674    29.541839   -1185.9255 
 3905800    817.42729   -1216.3093    30.324641   -1185.9847 
 3905900    810.76712   -1216.1514    30.077564   -1186.0738 
 3906000    793.16651   -1215.6106    29.424623   -1186.1859 
 3906100    754.15466   -1214.2834    27.977374   -1186.3061 
 3906200    712.40963   -1212.8286    26.428731   -1186.3999 
 3906300    770.89295   -1215.0548    28.598326   -1186.4565 
 3906400    816.84905   -1216.8141     30.30319   -1186.5109 
 3906500    795.95545   -1216.1192    29.528086   -1186.5912 
 3906600    737.32932   -1214.0293    27.353194   -1186.6761 
 3906700    763.70636   -1215.0682     28.33172   -1186.7365 
 3906800    772.84525   -1215.4563    28.670752   -1186.7856 
 3906900    740.12575   -1214.2843    27.456935   -1186.8274 
 3907000    754.01787   -1214.8156      27.9723   -1186.8433 
 3907100     816.8781   -1217.1492    30.304267   -1186.8449 
 3907200     824.9242   -1217.4747    30.602759   -1186.8719 
 3907300    794.18949   -1216.3939    29.462573   -1186.9313 
 3907400     766.6885   -1215.4404     28.44235    -1186.998 
 3907500    776.47869   -1215.8647    28.805544   -1187.0591 
 3907600     718.4627    -1213.763    26.653286   -1187.1097 
 3907700    753.64162   -1215.0813    27.958342    -1187.123 
 3907800    780.67571   -1216.0775    28.961243   -1187.1163 
 3907900    749.03196   -1214.8927    27.787334   -1187.1054 
 3908000    745.62946   -1214.7357    27.661109   -1187.0746 
 3908100    766.11299   -1215.4405    28.421001   -1187.0195 
 3908200    790.24579   -1216.2681    29.316271   -1186.9518 
 3908300    747.48766   -1214.6164    27.730044   -1186.8864 
 3908400    756.62196   -1214.8719    28.068906    -1186.803 
 3908500    785.61738   -1215.8436    29.144568    -1186.699 
 3908600    749.49487   -1214.3985    27.804507    -1186.594 
 3908700    742.37381   -1214.0126    27.540332   -1186.4723 
 3908800    772.74502   -1214.9888    28.667033   -1186.3217 
 3908900    775.52992   -1214.9292    28.770346   -1186.1589 
 3909000    761.09776   -1214.2268    28.234947   -1185.9918 
 3909100    782.78938   -1214.8515    29.039656   -1185.8119 
 3909200    817.17636   -1215.9403    30.315332    -1185.625 
 3909300    821.69301   -1215.9415    30.482889   -1185.4586 
 3909400    856.91058   -1217.1108    31.789379   -1185.3214 
 3909500     818.0168    -1215.583     30.34651   -1185.2364 
 3909600    780.85492   -1214.1514    28.967892   -1185.1835 
 3909700    790.41136   -1214.4551    29.322413   -1185.1327 
 3909800    820.07597   -1215.5105    30.422901   -1185.0876 
 3909900    817.35111   -1215.3891    30.321815   -1185.0673 
 3910000    768.64321   -1213.5851    28.514866   -1185.0703 
 3910100    775.32811   -1213.8286     28.76286   -1185.0657 
 3910200    863.05018    -1217.078    32.017144   -1185.0609 
 3910300    822.15727   -1215.6095    30.500112   -1185.1093 
 3910400    768.62357   -1213.6965    28.514137   -1185.1823 
 3910500     757.4597   -1213.3442    28.099984   -1185.2443 
 3910600     790.5221   -1214.6176    29.326521    -1185.291 
 3910700    802.36731   -1215.1078    29.765951   -1185.3418 
 3910800    806.15086   -1215.3129    29.906312   -1185.4066 
 3910900    782.99289   -1214.5323    29.047205   -1185.4851 
 3911000    763.02748    -1213.866    28.306535   -1185.5595 
 3911100    807.00986   -1215.5615    29.938179   -1185.6234 
 3911200     818.2511   -1216.0606    30.355203   -1185.7054 
 3911300    785.30171   -1214.9406    29.132857   -1185.8077 
 3911400    763.33166   -1214.2256     28.31782   -1185.9077 
 3911500    753.36069   -1213.9386     27.94792   -1185.9907 
 3911600    750.53422   -1213.8927    27.843065   -1186.0497 
 3911700    788.06531   -1215.3239     29.23538   -1186.0885 
 3911800    775.45043    -1214.893    28.767397   -1186.1256 
 3911900    766.66475   -1214.5963    28.441469   -1186.1548 
 3912000    795.07447   -1215.6684    29.495404    -1186.173 
 3912100    758.48425   -1214.3303    28.137992   -1186.1923 
 3912200    771.33586   -1214.8101    28.614757   -1186.1954 
 3912300    810.46818   -1216.2552    30.066474   -1186.1887 
 3912400    785.51743   -1215.3355     29.14086   -1186.1947 
 3912500    769.21972   -1214.7369    28.536253   -1186.2006 
 3912600    786.09528   -1215.3581    29.162297   -1186.1958 
 3912700    789.94875   -1215.4942    29.305251   -1186.1889 
 3912800    793.60994   -1215.6243    29.441073   -1186.1832 
 3912900    875.83093   -1218.6804    32.491279   -1186.1891 
 3913000    840.95409   -1217.4553     31.19743   -1186.2579 
 3913100    766.96976   -1214.8113    28.452785   -1186.3585 
 3913200    766.05157   -1214.8631    28.418722   -1186.4444 
 3913300    768.57651   -1215.0287    28.512391   -1186.5163 
 3913400    713.24875   -1213.0267    26.459861   -1186.5669 
 3913500    760.36186   -1214.7795    28.207647   -1186.5718 
 3913600    810.28827   -1216.6165      30.0598   -1186.5567 
 3913700    764.26761    -1214.903    28.352541   -1186.5505 
 3913800    788.40409   -1215.7799    29.247948    -1186.532 
 3913900    818.01566    -1216.859    30.346468   -1186.5126 
 3914000    766.25894   -1214.9355    28.426415   -1186.5091 
 3914100    747.05257   -1214.2057    27.713904   -1186.4918 
 3914200    824.33392   -1217.0307    30.580861   -1186.4499 
 3914300    792.61918   -1215.8284    29.404318    -1186.424 
 3914400    703.97671   -1212.5158     26.11589   -1186.3999 
 3914500    783.47889   -1215.3925    29.065235   -1186.3272 
 3914600    847.99984   -1217.6978    31.458811    -1186.239 
 3914700    799.11482   -1215.8323    29.645291    -1186.187 
 3914800    817.57174   -1216.4789        30.33   -1186.1489 
 3914900    812.02066   -1216.2529    30.124068   -1186.1288 
 3915000    778.93641   -1215.0201    28.896719   -1186.1234 
 3915100    780.55042   -1215.0686    28.956596    -1186.112 
 3915200    799.15787   -1215.7408    29.646888   -1186.0939 
 3915300    780.82225   -1215.0459     28.96668   -1186.0792 
 3915400     781.4791   -1215.0496    28.991047   -1186.0586 
 3915500    797.78137   -1215.6279    29.595823   -1186.0321 
 3915600    782.04466   -1215.0197    29.012028   -1186.0077 
 3915700    795.44348   -1215.4876    29.509093   -1185.9785 
 3915800    821.43962    -1216.426    30.473489   -1185.9525 
 3915900    795.16804    -1215.444    29.498875   -1185.9451 
 3916000    761.29976   -1214.1825    28.242441   -1185.9401 
 3916100    787.58702   -1215.1343    29.217637   -1185.9166 
 3916200    799.88222   -1215.5615     29.67376   -1185.8878 
 3916300     787.9511   -1215.0942    29.231143   -1185.8631 
 3916400    790.67704   -1215.1685    29.332269   -1185.8363 
 3916500    823.98496   -1216.3779    30.567915     -1185.81 
 3916600     806.7511   -1215.7317    29.928579   -1185.8031 
 3916700    779.98984   -1214.7424    28.935799   -1185.8066 
 3916800     772.8722   -1214.4729    28.671751   -1185.8012 
 3916900    809.64075   -1215.8201    30.035779   -1185.7843 
 3917000     778.8178   -1214.6662    28.892319   -1185.7739 
 3917100    777.95266   -1214.6159    28.860225   -1185.7557 
 3917200    802.38812   -1215.4939    29.766723   -1185.7272 
 3917300     805.1619   -1215.5723    29.869624   -1185.7027 
 3917400    810.28623   -1215.7469    30.059725   -1185.6872 
 3917500    803.52316   -1215.4918     29.80883    -1185.683 
 3917600    805.84337   -1215.5819    29.894905    -1185.687 
 3917700    793.07279   -1215.1194    29.421146   -1185.6982 
 3917800     784.1784   -1214.8004    29.091185   -1185.7092 
 3917900    785.48599    -1214.852    29.139694   -1185.7123 
 3918000    826.75696   -1216.3831     30.67075   -1185.7124 
 3918100     846.5954   -1217.1419     31.40671   -1185.7352 
 3918200    841.69265   -1217.0222    31.224829   -1185.7973 
 3918300    824.06463   -1216.4655    30.570871   -1185.8946 
 3918400    775.32964     -1214.77    28.762917    -1186.007 
 3918500    784.88715   -1215.2223    29.117478   -1186.1048 
 3918600    837.06435   -1217.2569     31.05313   -1186.2037 
 3918700    814.84716   -1216.5599    30.228924   -1186.3309 
 3918800    768.68433   -1214.9813    28.516391   -1186.4649 
 3918900    765.59502   -1214.9789    28.401785   -1186.5771 
 3919000    802.06048   -1216.4285    29.754568   -1186.6739 
 3919100    783.52976   -1215.8397    29.067122   -1186.7725 
 3919200    771.89621   -1215.4957    28.635544   -1186.8602 
 3919300    771.90109   -1215.5661    28.635725   -1186.9304 
 3919400    771.32632   -1215.5968    28.614403   -1186.9824 
 3919500    791.01407   -1216.3633    29.344772   -1187.0185 
 3919600    795.35244    -1216.556    29.505716   -1187.0502 
 3919700    766.59543   -1215.5163    28.438898   -1187.0774 
 3919800    751.79721   -1214.9731    27.889918   -1187.0832 
 3919900    782.75115   -1216.0979    29.038237   -1187.0597 
 3920000    809.55307   -1217.0557    30.032526   -1187.0232 
 3920100    814.71611   -1217.2181    30.224063   -1186.9941 
 3920200    802.63036   -1216.7522     29.77571   -1186.9765 
 3920300     796.6801   -1216.5179    29.554969   -1186.9629 
 3920400    809.32609   -1216.9738    30.024105   -1186.9497 
 3920500    808.99307   -1216.9552    30.011751   -1186.9435 
 3920600    807.00407   -1216.8837    29.937964   -1186.9458 
 3920700    784.94783   -1216.0719    29.119729   -1186.9522 
 3920800     818.8973   -1217.3322    30.379175   -1186.9531 
 3920900    791.47938   -1216.3255    29.362034   -1186.9634 
 3921000    804.73503   -1216.8257    29.853788   -1186.9719 
 3921100    827.88779   -1217.6989    30.712701   -1186.9862 
 3921200     782.4979   -1216.0453    29.028842   -1187.0164 
 3921300    798.40957   -1216.6574    29.619128   -1187.0383 
 3921400    825.89928   -1217.7006    30.638932   -1187.0617 
 3921500     799.0468   -1216.7433    29.642768   -1187.1006 
 3921600    769.43059   -1215.6814    28.544076   -1187.1373 
 3921700    758.38114   -1215.2875    28.134167   -1187.1534 
 3921800    763.52874    -1215.466    28.325131   -1187.1408 
 3921900    796.24787   -1216.6427    29.538934   -1187.1037 
 3922000    797.63755    -1216.651    29.590488   -1187.0605 
 3922100     760.6102   -1215.2296     28.21686   -1187.0127 
 3922200    814.68454   -1217.1662    30.222891   -1186.9433 
 3922300    829.02818   -1217.6316    30.755007   -1186.8766 
 3922400    800.02376    -1216.508    29.679011    -1186.829 
 3922500    807.16807   -1216.7288    29.944048   -1186.7847 
 3922600    808.33303   -1216.7306    29.987265   -1186.7433 
 3922700    825.11313   -1217.3181    30.609768   -1186.7083 
 3922800    838.74987   -1217.8058    31.115659   -1186.6902 
 3922900     774.7735   -1215.4371    28.742285   -1186.6948 
 3923000     733.3587   -1213.8878    27.205893   -1186.6819 
 3923100     815.4382   -1216.8786    30.250851   -1186.6277 
 3923200    853.02286   -1218.2205    31.645153   -1186.5754 
 3923300    836.25052   -1217.5813    31.022939   -1186.5584 
 3923400    833.22417   -1217.4793    30.910668   -1186.5686 
 3923500    818.59351    -1216.969    30.367905   -1186.6011 
 3923600    761.53409   -1214.8923    28.251134   -1186.6411 
 3923700    766.54139   -1215.0914    28.436893   -1186.6545 
 3923800    789.21511   -1215.9219    29.278035   -1186.6439 
 3923900    754.99144   -1214.6281    28.008417   -1186.6197 
 3924000    798.29794   -1216.1811    29.614987   -1186.5661 
 3924100     854.6717   -1218.2117    31.706321   -1186.5054 
 3924200    822.86454   -1217.0031     30.52635   -1186.4768 
 3924300    789.26572   -1215.7435    29.279912   -1186.4636 
 3924400     803.4419   -1216.2497    29.805816   -1186.4439 
 3924500    811.57267   -1216.5299    30.107448   -1186.4224 
 3924600    854.45427   -1218.1077    31.698255   -1186.4094 
 3924700    827.58176    -1217.131    30.701348   -1186.4297 
 3924800    777.75621   -1215.3181    28.852937   -1186.4651 
 3924900    778.57616   -1215.3677    28.883355   -1186.4844 
 3925000    786.55128   -1215.6644    29.179213   -1186.4852 
 3925100    763.79641   -1214.8059    28.335061   -1186.4708 
 3925200    777.65095   -1215.2789    28.849032   -1186.4299 
 3925300    853.99057   -1218.0514    31.681053   -1186.3703 
 3925400     841.0586   -1217.5409    31.201307   -1186.3396 
 3925500    783.53286   -1215.4013    29.067237   -1186.3341 
 3925600    798.99178   -1215.9583    29.640727   -1186.3176 
 3925700    834.42342   -1217.2521    30.955158    -1186.297 
 3925800    779.50832   -1215.2087    28.917936   -1186.2908 
 3925900    758.89383   -1214.4229    28.153186   -1186.2697 
 3926000     772.8923   -1214.8891    28.672497   -1186.2166 
 3926100    761.39003   -1214.3839     28.24579   -1186.1381 
 3926200    769.93625   -1214.5931    28.562835   -1186.0303 
 3926300    846.73658   -1217.3061    31.411947   -1185.8941 
 3926400    844.48455   -1217.1025    31.328402   -1185.7741 
 3926500    820.18013   -1216.1123    30.426765   -1185.6856 
 3926600    868.51467   -1217.8318    32.219863   -1185.6119 
 3926700    846.74741   -1216.9911    31.412349   -1185.5788 
 3926800    817.46903   -1215.9032     30.32619    -1185.577 
 3926900    824.98647   -1216.1916    30.605069   -1185.5866 
 3927000    777.36809   -1214.4422    28.838538   -1185.6037 
 3927100    799.21065   -1215.2536    29.648846   -1185.6048 
 3927200    821.66804   -1216.0807    30.481963   -1185.5987 
 3927300    825.76109   -1216.2367    30.633805   -1185.6029 
 3927400     798.4744   -1215.2387    29.621533   -1185.6172 
 3927500    799.84957   -1215.2999    29.672549   -1185.6273 
 3927600    780.05944   -1214.5674    28.938381    -1185.629 
 3927700    804.13528   -1215.4445    29.831539   -1185.6129 
 3927800    899.07976   -1218.9527    33.353757    -1185.599 
 3927900     869.9113   -1217.9196    32.271675   -1185.6479 
 3928000     788.4824   -1214.9858    29.250853   -1185.7349 
 3928100    822.44897   -1216.3258    30.510934   -1185.8149 
 3928200    778.83492   -1214.7916    28.892954   -1185.8986 
 3928300    776.39982   -1214.7631    28.802618   -1185.9605 
 3928400     805.7382   -1215.8942    29.891003   -1186.0032 
 3928500     769.2705   -1214.5768    28.538137   -1186.0387 
 3928600    729.05779   -1213.0909    27.046339   -1186.0446 
 3928700    764.10134   -1214.3468    28.346373   -1186.0004 
 3928800     818.4586   -1216.2841      30.3629   -1185.9212 
 3928900    789.12802   -1215.1157    29.274804   -1185.8409 
 3929000    791.40256   -1215.1091    29.359184   -1185.7499 
 3929100    843.13003   -1216.9231    31.278152   -1185.6449 
 3929200    887.11852    -1218.468    32.910023    -1185.558 
 3929300    846.44286   -1216.9271    31.401051   -1185.5261 
 3929400     751.2007   -1213.3867    27.867789   -1185.5189 
 3929500    763.54943    -1213.805    28.325899   -1185.4791 
 3929600    834.11702   -1216.3489    30.943791   -1185.4051 
 3929700    844.01119   -1216.6503    31.310841   -1185.3395 
 3929800    831.05181   -1216.1287    30.830079   -1185.2987 
 3929900    794.27883   -1214.7371    29.465887   -1185.2712 
 3930000    832.21082   -1216.1109    30.873075   -1185.2378 
 3930100    832.01485    -1216.081    30.865805   -1185.2152 
 3930200    820.37566   -1215.6417    30.434018   -1185.2076 
 3930300     868.5091    -1217.431    32.219657   -1185.2113 
 3930400    850.80528   -1216.8172    31.562886   -1185.2543 
 3930500    800.46638   -1215.0184    29.695431   -1185.3229 
 3930600    753.33063    -1213.325    27.946805   -1185.3782 
 3930700    808.84934   -1215.4059    30.006419   -1185.3995 
 3930800    823.31973   -1215.9581    30.543237   -1185.4149 
 3930900    840.88988   -1216.6343    31.195048   -1185.4392 
 3931000    862.02161   -1217.4659    31.978986   -1185.4869 
 3931100    804.73179   -1215.4188    29.853668   -1185.5651 
 3931200    794.25339   -1215.1006    29.464943   -1185.6357 
 3931300    886.28506   -1218.5855    32.879103   -1185.7064 
 3931400    829.58007    -1216.599    30.775481   -1185.8235 
 3931500    774.41498   -1214.6734    28.728985   -1185.9444 
 3931600    789.48213   -1215.3268    29.287941   -1186.0389 
 3931700    811.17458   -1216.2122     30.09268   -1186.1195 
 3931800    797.40007   -1215.7785    29.581678   -1186.1968 
 3931900    732.60729   -1213.4325    27.178017   -1186.2545 
 3932000    777.88111   -1215.1201     28.85757   -1186.2625 
 3932100    857.86644   -1218.0706    31.824839   -1186.2457 
 3932200    871.66065    -1218.595    32.336572   -1186.2584 
 3932300      832.846   -1217.2071    30.896639   -1186.3105 
 3932400    827.55791   -1217.0777    30.700463   -1186.3772 
 3932500    813.43121   -1216.6296    30.176396   -1186.4532 
 3932600    791.94479   -1215.9036      29.3793   -1186.5243 
 3932700    862.11715     -1218.57     31.98253   -1186.5874 
 3932800    874.43995   -1219.1288    32.439677   -1186.6891 
 3932900    784.31294   -1215.9177    29.096176   -1186.8215 
 3933000    762.46927   -1215.2136    28.285827   -1186.9278 
 3933100    762.68987   -1215.2915    28.294011   -1186.9975 
 3933200    786.12622   -1216.1953    29.163444   -1187.0318 
 3933300    809.35844   -1217.0715    30.025306   -1187.0462 
 3933400    803.31068   -1216.8542    29.800948   -1187.0533 
 3933500    856.04516   -1218.8134    31.757274   -1187.0562 
 3933600    845.57935   -1218.4533    31.369016   -1187.0843 
 3933700    792.11539   -1216.5164    29.385629   -1187.1308 
 3933800    799.46958   -1216.8192    29.658452   -1187.1607 
 3933900    844.28242   -1218.5029    31.320904    -1187.182 
 3934000    804.33754   -1217.0576    29.839042   -1187.2185 
 3934100      729.433   -1214.3004    27.060259   -1187.2402 
 3934200    792.93112   -1216.6275     29.41589   -1187.2116 
 3934300    832.11879   -1218.0291    30.869661   -1187.1595 
 3934400    834.13446   -1218.0597    30.944438   -1187.1153 
 3934500    777.60506   -1215.9279    28.847329   -1187.0806 
 3934600    745.90643   -1214.6928    27.671384   -1187.0214 
 3934700    828.48871   -1217.6513    30.734994   -1186.9163 
 3934800      784.502   -1215.9081     29.10319   -1186.8049 
 3934900    741.85393   -1214.2002    27.521046   -1186.6791 
 3935000    807.59807   -1216.4649        29.96   -1186.5049 
 3935100    885.71043   -1219.1602    32.857786   -1186.3024 
 3935200    799.85782   -1215.8132    29.672855   -1186.1403 
 3935300    783.20124   -1215.0385    29.054935   -1185.9835 
 3935400    861.31317   -1217.7512    31.952704   -1185.7985 
 3935500    885.91804    -1218.495    32.865488   -1185.6295 
 3935600     791.0673   -1214.8559    29.346747   -1185.5092 
 3935700    783.41222   -1214.4484    29.062761   -1185.3857 
 3935800    842.16913   -1216.4727    31.242505   -1185.2302 
 3935900    788.00004   -1214.3166    29.232959   -1185.0837 
 3936000    813.53373   -1215.1049    30.180199   -1184.9247 
 3936100    888.79196   -1217.7236    32.972103   -1184.7515 
 3936200     873.5249   -1217.0242    32.405731   -1184.6185 
 3936300    837.46306   -1215.5987    31.067921   -1184.5308 
 3936400    868.36653   -1216.6758    32.214368   -1184.4614 
 3936500    846.13076   -1215.8123    31.389473   -1184.4229 
 3936600    827.83325   -1215.1168    30.710678   -1184.4061 
 3936700    824.49188   -1214.9819    30.586721   -1184.3952 
 3936800    848.40416   -1215.8625     31.47381   -1184.3887 
 3936900    838.79634   -1215.5178    31.117383   -1184.4004 
 3937000    833.30729   -1215.3399    30.913752   -1184.4261 
 3937100    831.04057   -1215.2915    30.829662   -1184.4619 
 3937200    780.65063   -1213.4597    28.960313   -1184.4994 
 3937300     837.6774   -1215.5904    31.075873   -1184.5145 
 3937400    946.86826   -1219.6759    35.126598   -1184.5493 
 3937500    892.14634   -1217.7748    33.096543   -1184.6782 
 3937600    780.14876   -1213.7813    28.941695   -1184.8396 
 3937700    840.18154   -1216.1489    31.168771   -1184.9801 
 3937800    855.73668   -1216.8851     31.74583   -1185.1393 
 3937900     798.0366    -1214.919    29.605292   -1185.3137 
 3938000    796.33294   -1215.0082     29.54209   -1185.4661 
 3938100    866.00686   -1217.7399     32.12683   -1185.6131 
 3938200    839.52619   -1216.9352    31.144458   -1185.7907 
 3938300    812.30581   -1216.1071    30.134646   -1185.9725 
 3938400    820.51912   -1216.5885    30.439341   -1186.1492 
 3938500    816.36608   -1216.6071    30.285273   -1186.3218 
 3938600    843.00498   -1217.7682    31.273514   -1186.4947 
 3938700    850.16527   -1218.2252    31.539144   -1186.6861 
 3938800    791.47114    -1216.249    29.361729   -1186.8873 
 3938900    766.58214   -1215.4918    28.438405   -1187.0534 
 3939000    854.31638   -1218.8892     31.69314    -1187.196 
 3939100    813.67185   -1217.5448    30.185323   -1187.3594 
 3939200    690.81492   -1213.1182    25.627618   -1187.4906 
 3939300    770.33968   -1216.1207    28.577801   -1187.5429 
 3939400    862.88053   -1219.5744     32.01085   -1187.5635 
 3939500    851.22764   -1219.1859    31.578555   -1187.6074 
 3939600     825.2741   -1218.2844    30.615739   -1187.6687 
 3939700    859.69081   -1219.6283    31.892519   -1187.7358 
 3939800    864.79273   -1219.9117    32.081788   -1187.8299 
 3939900    832.81795   -1218.8455    30.895598     -1187.95 
 3940000    803.34177   -1217.8736    29.802101   -1188.0715 
 3940100    816.95475   -1218.4859    30.307111   -1188.1788 
 3940200     827.1878   -1218.9689    30.686733   -1188.2822 
 3940300    799.57427   -1218.0453    29.662336   -1188.3829 
 3940400    778.49791   -1217.3423    28.880452   -1188.4618 
 3940500    793.55551   -1217.9499    29.439054   -1188.5108 
 3940600    766.87371   -1216.9823    28.449222    -1188.533 
 3940700    772.97706   -1217.1921    28.675641   -1188.5164 
 3940800    782.69555   -1217.4977    29.036175   -1188.4615 
 3940900    784.56067   -1217.4806    29.105366   -1188.3752 
 3941000    746.85402   -1215.9657    27.706538   -1188.2591 
 3941100    798.68064   -1217.7222    29.629184    -1188.093 
 3941200    847.03976   -1219.3152    31.423194    -1187.892 
 3941300    853.35469   -1219.3535    31.657464    -1187.696 
 3941400    819.07689   -1217.9067    30.385837   -1187.5209 
 3941500    771.39347   -1215.9653    28.616894   -1187.3484 
 3941600    818.86701   -1217.5195    30.378051   -1187.1414 
 3941700    840.47167   -1218.0951    31.179534   -1186.9156 
 3941800     841.7057   -1217.9196    31.225313   -1186.6943 
 3941900    842.91869   -1217.7549    31.270312   -1186.4846 
 3942000    853.95429   -1217.9643    31.679707   -1186.2846 
 3942100    894.12887   -1219.2713     33.17009   -1186.1013 
 3942200    849.30291   -1217.4678    31.507152   -1185.9606 
 3942300    791.49033    -1215.207     29.36244   -1185.8445 
 3942400    777.56748   -1214.5556    28.845935   -1185.7097 
 3942500    802.91064   -1215.3255    29.786107   -1185.5394 
 3942600    822.42651   -1215.8535      30.5101   -1185.3433 
 3942700    832.05844   -1216.0067    30.867422   -1185.1393 
 3942800    867.52796   -1217.1158    32.183259   -1184.9326 
 3942900    859.04517   -1216.6161    31.868567   -1184.7475 
 3943000    887.74823   -1217.5214    32.933384   -1184.5881 
 3943100    882.65266   -1217.2108     32.74435   -1184.4665 
 3943200    878.86696   -1216.9933    32.603909   -1184.3894 
 3943300    835.02122   -1215.3238    30.977335   -1184.3465 
 3943400    860.35737   -1216.2315    31.917247   -1184.3142 
 3943500    892.19785   -1217.4022    33.098454   -1184.3038 
 3943600    900.58474   -1217.7517    33.409588   -1184.3421 
 3943700    844.46895    -1215.756    31.327823   -1184.4282 
 3943800    800.45173   -1214.2156    29.694888   -1184.5207 
 3943900    797.05689   -1214.1606    29.568947   -1184.5916 
 3944000    839.70734    -1215.794    31.151179   -1184.6428 
 3944100    856.44986   -1216.4745    31.772287   -1184.7022 
 3944200    833.01915   -1215.6783    30.903062   -1184.7753 
 3944300    887.75055   -1217.7929    32.933469   -1184.8595 
 3944400    868.00292   -1217.1849    32.200878    -1184.984 
 3944500    840.46898   -1216.3107    31.179434   -1185.1313 
 3944600    865.04028   -1217.3802    32.090972   -1185.2893 
 3944700    920.35844   -1219.6286    34.143146   -1185.4855 
 3944800    866.49441   -1217.8909    32.144916    -1185.746 
 3944900    818.94616   -1216.3942    30.380988   -1186.0132 
 3945000    812.70858   -1216.4177    30.149588   -1186.2681 
 3945100    753.17065   -1214.4352     27.94087   -1186.4943 
 3945200    776.29459   -1215.4616    28.798714   -1186.6629 
 3945300    847.17158   -1218.2361    31.428085    -1186.808 
 3945400    823.13198   -1217.4988    30.536272   -1186.9625 
 3945500    760.33625   -1215.3045    28.206697   -1187.0978 
 3945600    740.45418   -1214.6499    27.469119   -1187.1807 
 3945700    773.02082   -1215.8821    28.677265   -1187.2049 
 3945800    818.23274   -1217.5427    30.354521   -1187.1882 
 3945900    836.37111   -1218.1852    31.027412   -1187.1578 
 3946000    831.10417   -1217.9592    30.832021   -1187.1272 
 3946100    834.88954   -1218.0682     30.97245   -1187.0958 
 3946200    834.72781   -1218.0298     30.96645   -1187.0634 
 3946300    825.45005   -1217.6532    30.622267   -1187.0309 
 3946400     808.1383   -1216.9719    29.980041   -1186.9919 
 3946500    830.99859   -1217.7646    30.828104   -1186.9365 
 3946600    816.03945   -1217.1477    30.273156   -1186.8746 
 3946700     805.7791   -1216.6934     29.89252   -1186.8008 
 3946800    842.61411   -1217.9662    31.259013   -1186.7072 
 3946900    830.64684   -1217.4276    30.815055   -1186.6125 
 3947000    840.89886   -1217.7126    31.195381   -1186.5172 
 3947100    873.25841   -1218.8196    32.395845   -1186.4237 
 3947200    831.83032   -1217.2129     30.85896    -1186.354 
 3947300    802.53242   -1216.0577    29.772076   -1186.2856 
 3947400    776.68571   -1215.0091    28.813224   -1186.1959 
 3947500    791.54419   -1215.4319    29.364439   -1186.0675 
 3947600    792.43692   -1215.3021    29.397557   -1185.9045 
 3947700    849.43253   -1217.2205    31.511961   -1185.7085 
 3947800    839.63736   -1216.6567    31.148583   -1185.5081 
 3947900    806.76106   -1215.2458    29.928949   -1185.3169 
 3948000    816.42566   -1215.3966    30.287483   -1185.1091 
 3948100    832.43894   -1215.7638    30.881538   -1184.8822 
 3948200    858.45606    -1216.493    31.846712   -1184.6463 
 3948300    842.20035   -1215.6653    31.243664   -1184.4216 
 3948400    828.17998   -1214.9293    30.723541   -1184.2058 
 3948500     823.4777   -1214.5366    30.549097   -1183.9875 
 3948600    869.71932   -1216.0201    32.264553   -1183.7556 
 3948700     865.2585   -1215.6364    32.099067   -1183.5373 
 3948800    847.71539   -1214.7922    31.448259   -1183.3439 
 3948900    881.17319   -1215.8484    32.689465    -1183.159 
 3949000    887.17799   -1215.9118    32.912229   -1182.9995 
 3949100    872.27117   -1215.2374    32.359221   -1182.8781 
 3949200      882.028   -1215.5058    32.721176   -1182.7846 
 3949300    920.32256   -1216.8673    34.141815   -1182.7254 
 3949400     881.6184     -1215.43    32.705981    -1182.724 
 3949500     857.0053   -1214.5512    31.792892   -1182.7583 
 3949600    835.41021    -1213.796    30.991765   -1182.8042 
 3949700     877.5672   -1215.4094    32.555691   -1182.8538 
 3949800    892.85095   -1216.0568    33.122683   -1182.9341 
 3949900    869.58126   -1215.3126    32.259431   -1183.0531 
 3950000    850.53222   -1214.7462    31.552756   -1183.1934 
 3950100     854.3229   -1215.0374    31.693382   -1183.3441 
 3950200    846.50809   -1214.9067    31.403471   -1183.5032 
 3950300    892.95138   -1216.8044    33.126408    -1183.678 
 3950400    844.90218   -1215.2313    31.343895   -1183.8874 
 3950500    852.26556   -1215.7133    31.617059   -1184.0962 
 3950600    863.79245   -1216.3682     32.04468   -1184.3235 
 3950700    793.97725   -1214.0031    29.454699   -1184.5484 
 3950800     866.6802   -1216.9024    32.151809   -1184.7506 
 3950900     894.2518   -1218.1618    33.174651   -1184.9871 
 3951000    820.20824   -1215.6746    30.427808   -1185.2468 
 3951100        822.5   -1215.9964    30.512827   -1185.4835 
 3951200    845.92748   -1217.0979    31.381931    -1185.716 
 3951300    788.44695   -1215.1898    29.249538   -1185.9402 
 3951400    780.00378   -1215.0548    28.936316   -1186.1185 
 3951500    865.16869   -1218.3665    32.095735   -1186.2708 
 3951600    844.23559   -1217.7593    31.319166   -1186.4401 
 3951700    787.65166   -1215.8209    29.220035   -1186.6009 
 3951800     781.2715   -1215.7029    28.983346   -1186.7196 
 3951900    828.87621   -1217.5543    30.749369   -1186.8049 
 3952000    808.37788   -1216.8661    29.988929   -1186.8771 
 3952100    801.07817   -1216.6438    29.718127   -1186.9257 
 3952200    813.75532   -1217.1346    30.188419   -1186.9462 
 3952300    811.00888   -1217.0325    30.086533   -1186.9459 
 3952400    783.76915   -1215.9972    29.076003   -1186.9212 
 3952500    818.84725   -1217.2359    30.377318   -1186.8586 
 3952600    845.03366   -1218.1229    31.348773   -1186.7741 
 3952700    816.26874   -1216.9686    30.281662   -1186.6869 
 3952800    818.42101   -1216.9454    30.361506   -1186.5839 
 3952900    863.45236   -1218.4927    32.032063   -1186.4606 
 3953000    810.33745   -1216.4055    30.061625   -1186.3438 
 3953100    764.53395   -1214.5747    28.362422   -1186.2123 
 3953200    790.72501   -1215.3667    29.334049   -1186.0327 
 3953300    817.01193   -1216.1146    30.309232   -1185.8054 
 3953400    827.49362   -1216.2526    30.698078   -1185.5545 
 3953500    821.82302   -1215.7758    30.487712   -1185.2881 
 3953600    823.52502   -1215.5599    30.550853   -1185.0091 
 3953700    816.80471   -1215.0176    30.301545    -1184.716 
 3953800    838.59045   -1215.5144    31.109745   -1184.4047 
 3953900     856.0207    -1215.839    31.756366   -1184.0826 
 3954000     888.9953   -1216.7449    32.979647   -1183.7653 
 3954100    889.28346   -1216.4637    32.990337   -1183.4733 
 3954200    835.64764   -1214.2248    31.000573   -1183.2242 
 3954300     849.0409   -1214.4779    31.497432   -1182.9805 
 3954400    897.63756   -1216.0312    33.300254   -1182.7309 
 3954500    872.16538   -1214.8677    32.355296   -1182.5124 
 3954600    866.51665   -1214.4664    32.145741   -1182.3207 
 3954700     920.5105   -1216.2932    34.148787   -1182.1444 
 3954800     920.2974   -1216.1567    34.140881   -1182.0158 
 3954900    883.13331   -1214.7087    32.762181   -1181.9465 
 3955000    837.57769   -1212.9786    31.072174   -1181.9065 
 3955100    850.70586    -1213.424    31.559198   -1181.8648 
 3955200    929.05802   -1216.2941     34.46588   -1181.8282 
 3955300    921.02642   -1216.0184    34.167926   -1181.8504 
 3955400     869.3004   -1214.1746    32.249012   -1181.9256 
 3955500    908.13328   -1215.7136    33.689621    -1182.024 
 3955600    950.51082   -1217.4412    35.261729   -1182.1795 
 3955700    924.43337   -1216.7133    34.294316    -1182.419 
 3955800    856.33665    -1214.467    31.768087   -1182.6989 
 3955900    900.27578   -1216.3902    33.398126   -1182.9921 
 3956000    909.81333   -1217.0891    33.751947   -1183.3371 
 3956100    845.57554    -1215.074    31.368875   -1183.7051 
 3956200    848.11693   -1215.5212    31.463155   -1184.0581 
 3956300    855.49722   -1216.1464    31.736946   -1184.4094 
 3956400    863.74421   -1216.8061     32.04289   -1184.7632 
 3956500    862.71865   -1217.1271    32.004845   -1185.1222 
 3956600    871.40269   -1217.8148    32.327002   -1185.4878 
 3956700    859.89862   -1217.7634    31.900228   -1185.8631 
 3956800    810.77695   -1216.2991    30.077929   -1186.2211 
 3956900    814.45354   -1216.7516    30.214322   -1186.5373 
 3957000    823.02348   -1217.3568    30.532247   -1186.8245 
 3957100    856.51851   -1218.8771    31.774834   -1187.1023 
 3957200    812.90787   -1217.5281    30.156981   -1187.3711 
 3957300     807.7314   -1217.5726    29.964946   -1187.6077 
 3957400    771.18167    -1216.414    28.609037    -1187.805 
 3957500    802.58263   -1217.7255    29.773939   -1187.9516 
 3957600    806.30314   -1217.9798    29.911961   -1188.0678 
 3957700    817.56844   -1218.4835    30.329877   -1188.1537 
 3957800    835.00091   -1219.1976    30.976581    -1188.221 
 3957900    786.46799   -1217.4461    29.176123     -1188.27 
 3958000    833.77804   -1219.2138    30.931216   -1188.2826 
 3958100    835.46921   -1219.2727    30.993954   -1188.2788 
 3958200    820.81281   -1218.7135    30.450236   -1188.2632 
 3958300    791.28693   -1217.5805    29.354895   -1188.2256 
 3958400    805.02091   -1218.0134    29.864393    -1188.149 
 3958500    831.54117   -1218.8836    30.848233   -1188.0354 
 3958600    783.88507   -1216.9834    29.080303   -1187.9031 
 3958700    762.17063   -1216.0069    28.274748   -1187.7322 
 3958800    830.38063   -1218.3016    30.805179   -1187.4964 
 3958900    885.06742   -1220.0553    32.833932   -1187.2214 
 3959000    830.34037   -1217.7659    30.803686   -1186.9622 
 3959100     762.5419   -1215.0001    28.288521   -1186.7116 
 3959200    797.89041   -1216.0123    29.599869   -1186.4125 
 3959300    808.29086    -1216.049    29.985701   -1186.0633 
 3959400    823.50138   -1216.2389    30.549975   -1185.6889 
 3959500    809.95487   -1215.3474    30.047432      -1185.3 
 3959600    843.04944   -1216.1732    31.275163    -1184.898 
 3959700    889.27347   -1217.4718    32.989966   -1184.4818 
 3959800    862.30739   -1216.0917    31.989588   -1184.1021 
 3959900    824.79453   -1214.3578    30.597949   -1183.7598 
 3960000    814.71023   -1213.6463    30.223844   -1183.4225 
 3960100    840.53632   -1214.2527    31.181932   -1183.0708 
 3960200    859.79286   -1214.6055    31.896305   -1182.7092 
 3960300    891.76667   -1215.4442    33.082458   -1182.3617 
 3960400    962.06891   -1217.7252    35.690507   -1182.0347 
 3960500    963.00326   -1217.5176    35.725169   -1181.7924 
 3960600    904.48337   -1215.1983    33.554218   -1181.6441 
 3960700    891.24066   -1214.6111    33.062944   -1181.5481 
 3960800    893.24535   -1214.6181    33.137314   -1181.4808 
 3960900    836.04234   -1212.4551    31.015216   -1181.4399 
 3961000    858.32261   -1213.2339    31.841762   -1181.3921 
 3961100    891.86009   -1214.4288    33.085924   -1181.3429 
 3961200    915.17398    -1215.271    33.950815   -1181.3202 
 3961300    888.53618   -1214.3032    32.962614   -1181.3406 
 3961400    869.38404   -1213.6386    32.252115   -1181.3865 
 3961500    887.12103   -1214.3578    32.910116   -1181.4477 
 3961600    921.39707   -1215.7201    34.181677   -1181.5384 
 3961700    920.95783    -1215.851    34.165382   -1181.6856 
 3961800    865.50408   -1213.9873    32.108177   -1181.8791 
 3961900    820.92781   -1212.5293    30.454502   -1182.0748 
 3962000    875.98721   -1214.7531    32.497077    -1182.256 
 3962100    891.87879   -1215.5538    33.086618   -1182.4672 
 3962200    864.24328   -1214.7637    32.061405   -1182.7023 
 3962300    816.05427    -1213.209    30.273705   -1182.9353 
 3962400    824.86008    -1213.741     30.60038   -1183.1406 
 3962500    861.70325   -1215.3018    31.967176   -1183.3347 
 3962600    852.34954   -1215.1551    31.620175   -1183.5349 
 3962700    868.70971   -1215.9657    32.227099   -1183.7386 
 3962800     825.2813   -1214.5614    30.616006   -1183.9454 
 3962900    863.02397   -1216.1516    32.016171   -1184.1354 
 3963000    884.53619   -1217.1563    32.814224   -1184.3421 
 3963100    852.79157    -1216.203    31.636573   -1184.5664 
 3963200    844.92916   -1216.1315    31.344896   -1184.7866 
 3963300     840.2519    -1216.171    31.171381   -1184.9996 
 3963400    826.42749     -1215.86    30.658527   -1185.2014 
 3963500    832.10556   -1216.2512     30.86917    -1185.382 
 3963600    829.45896   -1216.3202    30.770988   -1185.5492 
 3963700    833.09671   -1216.6027     30.90594   -1185.6967 
 3963800    856.89681   -1217.6248    31.788868   -1185.8359 
 3963900    838.38412   -1217.0775     31.10209   -1185.9754 
 3964000    814.40327   -1216.3138    30.212457   -1186.1014 
 3964100    822.62929   -1216.7186    30.517623    -1186.201 
 3964200    848.70443   -1217.7674     31.48495   -1186.2825 
 3964300    831.65657   -1217.2126    30.852514   -1186.3601 
 3964400    811.86642   -1216.5383    30.118346   -1186.4199 
 3964500    834.86656   -1217.4251    30.971597   -1186.4535 
 3964600    800.13953   -1216.1512    29.683306   -1186.4679 
 3964700    761.57631   -1214.6932      28.2527   -1186.4405 
 3964800    809.87241   -1216.3883    30.044373   -1186.3439 
 3964900    861.61262   -1218.1496    31.963813   -1186.1858 
 3965000    821.56601   -1216.4753    30.478178   -1185.9971 
 3965100    802.52757    -1215.536    29.771896   -1185.7641 
 3965200      840.494   -1216.6319    31.180362   -1185.4515 
 3965300    846.24396   -1216.4583    31.393672   -1185.0646 
 3965400    809.04525   -1214.6476    30.013687   -1184.6339 
 3965500    782.92108   -1213.1965    29.044541   -1184.1519 
 3965600     803.6895   -1213.4223    29.815001   -1183.6073 
 3965700    906.33097   -1216.6199     33.62276   -1182.9971 
 3965800    941.23236   -1217.3236     34.91752    -1182.406 
 3965900    892.72225   -1215.0648    33.117908   -1181.9469 
 3966000    850.00378    -1213.128    31.533152   -1181.5949 
 3966100    928.23849   -1215.7253    34.435477   -1181.2898 
 3966200    901.59277   -1214.5032    33.446984   -1181.0563 
 3966300     832.6924   -1211.7862    30.890941   -1180.8953 
 3966400    878.01514   -1213.3161    32.572308   -1180.7438 
 3966500    914.44226    -1214.536    33.923669   -1180.6123 
 3966600    926.03111   -1214.8834    34.353589   -1180.5298 
 3966700    924.12129   -1214.7834    34.282739   -1180.5007 
 3966800    937.77562   -1215.3121    34.789283   -1180.5228 
 3966900    939.46024   -1215.4539    34.851778   -1180.6021 
 3967000    901.66123   -1214.1799    33.449523   -1180.7304 
 3967100    909.09175   -1214.6111    33.725178   -1180.8859 
 3967200    880.76019   -1213.7413    32.674143   -1181.0672 
 3967300    858.16725   -1213.0863    31.835998   -1181.2503 
 3967400    876.83923   -1213.9585    32.528685   -1181.4298 
 3967500    885.12637   -1214.4536    32.836118   -1181.6175 
 3967600    856.37071   -1213.5853    31.769351   -1181.8159 
 3967700     858.6619   -1213.8566    31.854349   -1182.0022 
 3967800    906.09672   -1215.8103    33.614069   -1182.1962 
 3967900    860.94054    -1214.352    31.938881   -1182.4132 
 3968000    884.31461   -1215.4337    32.806004   -1182.6277 
 3968100    908.87172   -1216.5821    33.717015   -1182.8651 
 3968200    886.95482   -1216.0407     32.90395   -1183.1368 
 3968300    838.55853   -1214.5162    31.108561   -1183.4077 
 3968400    847.53151   -1215.0992    31.441437   -1183.6578 
 3968500    872.07775   -1216.2504    32.352045   -1183.8984 
 3968600    877.09358    -1216.687    32.538121   -1184.1488 
 3968700    835.39511   -1215.3845    30.991205   -1184.3933 
 3968800    818.06378   -1214.9561    30.348253   -1184.6079 
 3968900    830.66006   -1215.6006    30.815546   -1184.7851 
 3969000    886.41825   -1217.8324    32.884044   -1184.9483 
 3969100    822.27353   -1215.6203    30.504425   -1185.1158 
 3969200    781.12732   -1214.2184    28.977997   -1185.2404 
 3969300    873.02499   -1217.7086    32.387186   -1185.3214 
 3969400    833.25215   -1216.3129    30.911706   -1185.4012 
 3969500    789.66867   -1214.7504    29.294861   -1185.4556 
 3969600    803.93331   -1215.2848    29.824046   -1185.4608 
 3969700    835.15522   -1216.4037    30.982306   -1185.4214 
 3969800    839.57519   -1216.4975    31.146276   -1185.3512 
 3969900    823.09672   -1215.7856    30.534964   -1185.2506 
 3970000    870.08238   -1217.3799    32.278022   -1185.1018 
 3970100    867.69689   -1217.1018    32.189526   -1184.9123 
 3970200    838.38908   -1215.7823    31.102274     -1184.68 
 3970300    849.08938   -1215.8619     31.49923   -1184.3627 
 3970400    896.22018   -1217.1687    33.247673    -1183.921 
 3970500    877.69947   -1215.9298    32.560598   -1183.3692 
 3970600     861.0973   -1214.6793    31.944696   -1182.7346 
 3970700    893.34324   -1215.1516    33.140945   -1182.0106 
 3970800    870.65072   -1213.5764    32.299106   -1181.2773 
 3970900    887.01509   -1213.5017    32.906186   -1180.5955 
 3971000    907.39659   -1213.6497    33.662292   -1179.9874 
 3971100    884.04467   -1212.2954     32.79599   -1179.4994 
 3971200    908.14552    -1212.798    33.690075   -1179.1079 
 3971300    948.93337   -1214.0017    35.203209   -1178.7985 
 3971400    913.67039   -1212.4814    33.895035   -1178.5864 
 3971500    874.04535   -1210.8685    32.425039   -1178.4435 
 3971600    945.75474   -1213.4106    35.085289   -1178.3253 
 3971700    978.63574   -1214.5725    36.305098   -1178.2674 
[...]
 6507100    260.26187   -1270.1437    9.6551068   -1260.4886 
 6507200    247.20228    -1269.679    9.1706264   -1260.5083 
 6507300    268.45926   -1270.4797    9.9592107   -1260.5205 
 6507400      271.737    -1270.618    10.080807   -1260.5372 
 6507500    265.67466   -1270.4171    9.8559086   -1260.5612 
 6507600    267.21443   -1270.5031    9.9130306   -1260.5901 
 6507700    259.83248   -1270.2631    9.6391773   -1260.6239 
 6507800    262.38048   -1270.3931    9.7337021   -1260.6594 
 6507900    255.49427   -1270.1764    9.4782398   -1260.6982 
 6508000    237.81742   -1269.5556    8.8224702   -1260.7331 
 6508100    260.49203   -1270.4215    9.6636451   -1260.7579 
 6508200    270.46776   -1270.8198    10.033721   -1260.7861 
 6508300    259.59291   -1270.4537      9.63029   -1260.8234 
 6508400      271.524     -1270.94    10.072906   -1260.8671 
 6508500    284.34687   -1271.4786    10.548604     -1260.93 
 6508600      264.506   -1270.8321     9.812554   -1261.0196 
 6508700    251.58443    -1270.452    9.3331942   -1261.1188 
 6508800    261.54303   -1270.9303    9.7026349   -1261.2277 
 6508900    252.23199   -1270.7055    9.3572171   -1261.3482 
 6509000    242.42874   -1270.4608    8.9935393   -1261.4673 
 6509100    238.59272   -1270.4286    8.8512318   -1261.5774 
 6509200    233.40803   -1270.3332    8.6588921   -1261.6743 
 6509300    227.84832   -1270.2046      8.45264    -1261.752 
 6509400    239.98358   -1270.7131    8.9028297   -1261.8102 
 6509500    257.63602   -1271.4165    9.5576939   -1261.8588 
 6509600    252.51643   -1271.2725    9.3677691   -1261.9048 
 6509700    249.66734   -1271.2062    9.2620747   -1261.9441 
 6509800    263.36973    -1271.748     9.770401   -1261.9775 
 6509900    270.54348   -1272.0516    10.036531   -1262.0151 
 6510000     242.7766   -1271.0626    9.0064441   -1262.0562 
 6510100    235.87201   -1270.8348    8.7503001   -1262.0845 
 6510200    240.63176    -1271.024    8.9268754   -1262.0971 
 6510300    249.14299   -1271.3382    9.2426224   -1262.0956 
 6510400    249.61925   -1271.3438    9.2602906   -1262.0835 
 6510500    239.15392   -1270.9326    8.8720512   -1262.0605 
 6510600    233.89463   -1270.6964    8.6769439   -1262.0195 
 6510700    240.57929   -1270.8779    8.9249291    -1261.953 
 6510800    255.43534   -1271.3336    9.4760537   -1261.8576 
 6510900    245.58839   -1270.8518    9.1107548    -1261.741 
 6511000    232.28518   -1270.2253    8.6172371   -1261.6081 
 6511100    247.15843   -1270.6152    9.1689997   -1261.4462 
 6511200    265.14226   -1271.0927     9.836158   -1261.2565 
 6511300    259.40045   -1270.6948    9.6231501   -1261.0717 
 6511400    254.55338   -1270.3513    9.4433351    -1260.908 
 6511500    267.57274   -1270.6879    9.9263228   -1260.7615 
 6511600    271.85095   -1270.7226    10.085035   -1260.6376 
 6511700    258.64464   -1270.1398    9.5951114   -1260.5446 
 6511800    258.08233   -1270.0434     9.574251   -1260.4692 
 6511900    254.69173   -1269.8527    9.4484678   -1260.4042 
 6512000    266.07952   -1270.2156     9.870928   -1260.3447 
 6512100    268.06839   -1270.2383    9.9447106   -1260.2936 
 6512200    270.63365   -1270.2927    10.039876   -1260.2528 
 6512300    273.82244   -1270.3797    10.158172   -1260.2215 
 6512400     277.0061   -1270.4774    10.276279   -1260.2011 
 6512500    275.47858   -1270.4123    10.219611   -1260.1927 
 6512600    255.60947   -1269.6757    9.4825135   -1260.1932 
 6512700    252.30983   -1269.5502    9.3601048   -1260.1901 
 6512800    273.17844   -1270.3154    10.134281   -1260.1811 
 6512900    284.33768   -1270.7278    10.548263   -1260.1796 
 6513000    260.28402   -1269.8481    9.6559285   -1260.1922 
 6513100    260.74866   -1269.8779    9.6731655   -1260.2047 
 6513200    267.41116   -1270.1374    9.9203287   -1260.2171 
 6513300    261.56996    -1269.936    9.7036338   -1260.2323 
 6513400    275.84662   -1270.4829    10.233265   -1260.2496 
 6513500      270.857   -1270.3254    10.048161   -1260.2773 
 6513600    262.39068   -1270.0456    9.7340806   -1260.3115 
 6513700    271.75593    -1270.431     10.08151   -1260.3495 
 6513800    268.99098   -1270.3759    9.9789362    -1260.397 
 6513900    259.11122   -1270.0636    9.6124204   -1260.4511 
 6514000    250.47809   -1269.7967    9.2921513   -1260.5046 
 6514100    261.22335   -1270.2453    9.6907756   -1260.5546 
 6514200    277.86925   -1270.9198      10.3083   -1260.6115 
 6514300    282.41821   -1271.1647    10.477055   -1260.6876 
 6514400    268.89804   -1270.7594    9.9754884   -1260.7839 
 6514500    251.84798    -1270.229    9.3429713    -1260.886 
 6514600    239.53145    -1269.868    8.8860567   -1260.9819 
 6514700    243.70492   -1270.1067    9.0408826   -1261.0658 
 6514800    259.10602   -1270.7581    9.6122275   -1261.1459 
 6514900    262.05364   -1270.9511    9.7215773   -1261.2295 
 6515000    261.34452   -1271.0115    9.6952705   -1261.3162 
 6515100    264.02524    -1271.202    9.7947192   -1261.4073 
 6515200    246.31507   -1270.6366    9.1377131   -1261.4988 
 6515300    243.16927   -1270.5987    9.0210112   -1261.5777 
 6515400    264.68444   -1271.4704    9.8191737   -1261.6512 
 6515500    255.62949   -1271.2124    9.4832563   -1261.7291 
 6515600    230.54746   -1270.3502    8.5527715   -1261.7975 
 6515700    235.76659    -1270.592    8.7463892   -1261.8456 
 6515800    242.79021   -1270.8866    9.0069492   -1261.8796 
 6515900    238.11871   -1270.7344    8.8336474   -1261.9008 
 6516000    252.46278   -1271.2738    9.3657788   -1261.9081 
 6516100     251.4689   -1271.2364    9.3289081   -1261.9075 
 6516200    257.94902   -1271.4685    9.5693054   -1261.8992 
 6516300    267.95047   -1271.8262     9.940336   -1261.8859 
 6516400    250.22782   -1271.1556     9.282867   -1261.8727 
 6516500    233.52965   -1270.5127    8.6634038   -1261.8493 
 6516600    236.80091   -1270.5856    8.7847599   -1261.8009 
 6516700    246.56277   -1270.8654    9.1469023   -1261.7185 
 6516800    249.14524   -1270.8428    9.2427058   -1261.6001 
 6516900    254.11173   -1270.8731    9.4269509   -1261.4462 
 6517000    260.48935   -1270.9219    9.6635457   -1261.2583 
 6517100    254.98312    -1270.516    9.4592777   -1261.0567 
 6517200    273.57341   -1270.9988    10.148934   -1260.8499 
 6517300    282.73061   -1271.1418    10.488645   -1260.6532 
 6517400    268.83008   -1270.4697    9.9729672   -1260.4967 
 6517500    271.00002   -1270.4255    10.053467   -1260.3721 
 6517600    269.13637   -1270.2547    9.9843301   -1260.2703 
 6517700    258.49181   -1269.7792    9.5894419   -1260.1898 
 6517800    262.37958   -1269.8528     9.733669   -1260.1191 
 6517900    263.31457   -1269.8236    9.7683547   -1260.0553 
 6518000    255.87552   -1269.4913    9.4923836    -1259.999 
 6518100     263.3714   -1269.7145     9.770463   -1259.9441 
 6518200    260.39308   -1269.5521    9.6599743   -1259.8921 
 6518300    254.95675   -1269.3014    9.4582994   -1259.8431 
 6518400    275.70004   -1270.0193    10.227827   -1259.7915 
 6518500     283.5796   -1270.2681     10.52014   -1259.7479 
 6518600    273.49022   -1269.8672    10.145848   -1259.7213 
 6518700    277.68253   -1270.0067    10.301372   -1259.7053 
 6518800    286.79995   -1270.3413    10.639607   -1259.7017 
 6518900     273.3806   -1269.8572    10.141781   -1259.7154 
 6519000    271.76751   -1269.8204    10.081939   -1259.7385 
 6519100    280.47034   -1270.1754    10.404794   -1259.7706 
 6519200    272.99723   -1269.9449    10.127559   -1259.8173 
 6519300    252.47941   -1269.2356    9.3663958   -1259.8692 
 6519400    268.55184   -1269.8805    9.9626451   -1259.9179 
 6519500    277.73371   -1270.2796    10.303271   -1259.9764 
 6519600    253.62947   -1269.4538    9.4090602   -1260.0447 
 6519700    242.93515   -1269.1175     9.012326   -1260.1052 
 6519800     262.8228    -1269.908    9.7501112   -1260.1579 
 6519900    282.09622   -1270.6839     10.46511   -1260.2188 
 6520000    272.43028   -1270.4041    10.106526   -1260.2976 
 6520100    272.08071   -1270.4808    10.093558   -1260.3873 
 6520200    274.29105   -1270.6666    10.175557   -1260.4911 
 6520300    265.19348   -1270.4438    9.8380579   -1260.6058 
 6520400    271.83894   -1270.8113    10.084589   -1260.7267 
 6520500    264.61615   -1270.6741    9.8166403   -1260.8575 
 6520600    238.82193   -1269.8373    8.8597351   -1260.9776 
 6520700    254.71185   -1270.5267    9.4492139   -1261.0775 
 6520800    270.41143   -1271.2083    10.031632   -1261.1766 
 6520900    249.10808   -1270.5124    9.2413272   -1261.2711 
 6521000    246.12997   -1270.4766    9.1308463   -1261.3458 
 6521100    255.31182   -1270.8778    9.4714714   -1261.4063 
 6521200     238.4993   -1270.3014    8.8477662   -1261.4537 
 6521300    255.76079   -1270.9704    9.4881273   -1261.4823 
 6521400    276.79434   -1271.7754    10.268423    -1261.507 
 6521500    250.93316   -1270.8445    9.3090333   -1261.5354 
 6521600    248.03823   -1270.7549    9.2016383   -1261.5533 
 6521700    254.06721   -1270.9858    9.4252994   -1261.5605 
 6521800    240.99345   -1270.5003    8.9402935     -1261.56 
 6521900    240.03232   -1270.4514    8.9046376   -1261.5467 
 6522000    255.32177   -1270.9925    9.4718407   -1261.5207 
 6522100    248.48993   -1270.7091    9.2183953   -1261.4907 
 6522200    233.20924   -1270.1079    8.6515176   -1261.4563 
 6522300    239.32615   -1270.2881    8.8784405   -1261.4097 
 6522400     260.0969   -1271.0007    9.6489868   -1261.3517 
 6522500     265.7738   -1271.1552    9.8595865   -1261.2957 
 6522600    263.99142   -1271.0425    9.7934643    -1261.249 
 6522700    266.28269   -1271.0884    9.8784651     -1261.21 
 6522800    257.42839   -1270.7284    9.5499913   -1261.1784 
 6522900     253.7883   -1270.5638    9.4149525   -1261.1488 
 6523000    252.45701    -1270.483    9.3655646   -1261.1174 
 6523100    254.50016   -1270.5249    9.4413607   -1261.0835 
 6523200    268.85674   -1271.0219    9.9739564   -1261.0479 
 6523300    248.00113   -1270.2187    9.2002619   -1261.0184 
 6523400     230.1246   -1269.5227    8.5370845   -1260.9856 
 6523500    253.28461   -1270.3333    9.3962667    -1260.937 
 6523600    275.95427   -1271.1188    10.237258   -1260.8815 
 6523700    259.34371   -1270.4584     9.621045   -1260.8373 
 6523800    247.42231   -1269.9768     9.178789    -1260.798 
 6523900    250.10811   -1270.0312    9.2784261   -1260.7528 
 6524000    259.43754   -1270.3263    9.6245262   -1260.7018 
 6524100     279.1227   -1271.0049    10.354799   -1260.6501 
 6524200    262.65373   -1270.3546    9.7438394   -1260.6107 
 6524300    253.63802   -1269.9865    9.4093774   -1260.5771 
 6524400    268.42526   -1270.4978    9.9579496   -1260.5398 
 6524500    268.50186   -1270.4673    9.9607913   -1260.5065 
 6524600    275.97213   -1270.7177    10.237921   -1260.4798 
 6524700    275.73248   -1270.6923     10.22903   -1260.4633 
 6524800    260.44816   -1270.1188    9.6620177   -1260.4567 
 6524900    246.22401   -1269.5838    9.1343349   -1260.4495 
 6525000     246.0106   -1269.5586    9.1264181   -1260.4322 
 6525100    259.30625   -1270.0233    9.6196557   -1260.4037 
 6525200    268.09102   -1270.3165    9.9455501    -1260.371 
 6525300    279.82845   -1270.7225    10.380981   -1260.3415 
 6525400    278.10313   -1270.6404    10.316976   -1260.3234 
 6525500    268.46625   -1270.2766    9.9594701   -1260.3171 
 6525600    265.81567    -1270.177    9.8611398   -1260.3159 
 6525700    272.46862   -1270.4259    10.107949    -1260.318 
 6525800    272.94064   -1270.4534     10.12546    -1260.328 
 6525900    266.31074   -1270.2268    9.8795057   -1260.3473 
 6526000    257.38243   -1269.9203    9.5482864    -1260.372 
 6526100    252.94803   -1269.7811    9.3837802   -1260.3973 
 6526200    250.10438   -1269.6991    9.2782877   -1260.4208 
 6526300    251.65639   -1269.7764    9.3358637   -1260.4406 
 6526400    271.10276   -1270.5169    10.057278   -1260.4596 
 6526500    270.04054   -1270.5086    10.017872   -1260.4907 
 6526600    262.17446   -1270.2616    9.7260594   -1260.5356 
 6526700    257.55189   -1270.1449    9.5545728   -1260.5903 
 6526800    263.33339   -1270.4226    9.7690529   -1260.6536 
 6526900    265.26426   -1270.5709    9.8406837   -1260.7303 
 6527000    250.16859   -1270.0962    9.2806696   -1260.8155 
 6527100    255.23584   -1270.3684    9.4686528   -1260.8998 
 6527200    264.62019   -1270.8063    9.8167903   -1260.9895 
 6527300    255.00432   -1270.5443    9.4600639   -1261.0843 
 6527400     257.1028   -1270.7137    9.5379128   -1261.1758 
 6527500    267.26563   -1271.1849    9.9149297     -1261.27 
 6527600    254.71432    -1270.816    9.4493055   -1261.3667 
 6527700    250.05832   -1270.7316    9.2765789    -1261.455 
 6527800    243.32198   -1270.5599    9.0266763   -1261.5332 
 6527900    236.67056    -1270.375    8.7799243   -1261.5951 
 6528000    251.30576   -1270.9643    9.3228562   -1261.6415 
 6528100    261.79203   -1271.3946    9.7118721   -1261.6827 
 6528200    244.48903   -1270.7911    9.0699712   -1261.7212 
 6528300    236.77984   -1270.5302    8.7839783   -1261.7462 
 6528400    246.21322   -1270.8894    9.1339346   -1261.7554 
 6528500    252.72413   -1271.1289    9.3754742   -1261.7534 
 6528600    252.97584   -1271.1287    9.3848121   -1261.7438 
 6528700    252.95366   -1271.1111    9.3839894   -1261.7271 
 6528800    240.48559   -1270.6237     8.921453   -1261.7023 
 6528900    250.06194   -1270.9394    9.2767131   -1261.6627 
 6529000    257.35326   -1271.1563    9.5472043   -1261.6091 
 6529100    250.17602    -1270.829    9.2809454    -1261.548 
 6529200    247.44278   -1270.6561    9.1795484   -1261.4766 
 6529300    253.61269   -1270.7983    9.4084379   -1261.3899 
 6529400    246.62502   -1270.4411    9.1492116   -1261.2918 
 6529500    249.20578   -1270.4267    9.2449516   -1261.1817 
 6529600    261.49416   -1270.7574    9.7008218   -1261.0566 
 6529700    259.70657    -1270.562    9.6345064   -1260.9275 
 6529800    265.00867   -1270.6326    9.8312019   -1260.8014 
 6529900    274.92924   -1270.8779    10.199232   -1260.6786 
 6530000    251.59719   -1269.9078    9.3336674   -1260.5741 
 6530100     261.6387   -1270.1835    9.7061841   -1260.4773 
 6530200    280.89003   -1270.8029    10.420363   -1260.3825 
 6530300     275.4533   -1270.5262    10.218673   -1260.3075 
 6530400    267.13696   -1270.1621    9.9101565   -1260.2519 
 6530500    266.77811   -1270.1037    9.8968442   -1260.2069 
 6530600    267.54245   -1270.0947    9.9251992   -1260.1695 
 6530700    272.92528   -1270.2645     10.12489   -1260.1396 
 6530800    272.84386   -1270.2415    10.121869   -1260.1196 
 6530900     267.0208   -1270.0145    9.9058474   -1260.1087 
 6531000    271.77562   -1270.1852     10.08224    -1260.103 
 6531100    265.79533   -1269.9642    9.8603854   -1260.1038 
 6531200    253.17733   -1269.4987    9.3922869   -1260.1064 
 6531300    263.98478   -1269.8971    9.7932182   -1260.1039 
 6531400    279.17017   -1270.4596    10.356561    -1260.103 
 6531500    267.63127   -1270.0415    9.9284943    -1260.113 
 6531600    263.41853   -1269.8985    9.7722114   -1260.1263 
 6531700    284.94894   -1270.7139    10.570939   -1260.1429 
 6531800    269.91586   -1270.1873    10.013247   -1260.1741 
 6531900    254.33106   -1269.6429    9.4350874   -1260.2078 
 6532000    277.42719   -1270.5305      10.2919   -1260.2386 
 6532100    281.78303   -1270.7357    10.453491   -1260.2822 
 6532200    257.65581   -1269.8943    9.5584279   -1260.3359 
 6532300    272.96971   -1270.5148    10.126538   -1260.3883 
 6532400    289.55529    -1271.196    10.741824   -1260.4542 
 6532500    269.53011   -1270.5385    9.9989369   -1260.5395 
 6532600    257.12695   -1270.1646    9.5388087   -1260.6257 
 6532700    261.31533   -1270.4046    9.6941877   -1260.7104 
 6532800    248.24332   -1270.0017    9.2092468   -1260.7925 
 6532900    243.48715   -1269.8952    9.0328039   -1260.8624 
 6533000    252.73384   -1270.2976    9.3758346   -1260.9217 
 6533100    253.88112   -1270.3943    9.4183958   -1260.9759 
 6533200    252.68407   -1270.3986    9.3739883   -1261.0246 
 6533300    262.77981   -1270.8182    9.7485163   -1261.0696 
 6533400    262.49612   -1270.8557    9.7379921   -1261.1177 
 6533500    257.15689   -1270.7077    9.5399192   -1261.1678 
 6533600    261.95206   -1270.9377    9.7178088   -1261.2199 
 6533700    252.42357   -1270.6413    9.3643241    -1261.277 
 6533800    248.74475   -1270.5626    9.2278486   -1261.3348 
 6533900    258.48625   -1270.9862    9.5892356    -1261.397 
 6534000    266.58071   -1271.3663     9.889521   -1261.4768 
 6534100    248.73891   -1270.8099     9.227632   -1261.5823 
 6534200    244.40864   -1270.7726    9.0669889   -1261.7056 
 6534300    243.87187   -1270.9014    9.0470761   -1261.8543 
 6534400    220.32532   -1270.1851    8.1735543   -1262.0116 
 6534500    225.03589   -1270.5056    8.3483054   -1262.1573 
 6534600    241.99462   -1271.2784    8.9774345    -1262.301 
 6534700    247.55009   -1271.6244    9.1835296   -1262.4409 
 6534800    249.43088    -1271.826    9.2533025   -1262.5727 
 6534900    239.17168   -1271.5603    8.8727099   -1262.6876 
 6535000    251.91053   -1272.1288    9.3452917   -1262.7835 
 6535100    248.86923   -1272.1018    9.2324665   -1262.8694 
 6535200    225.63382   -1271.3058    8.3704871   -1262.9353 
 6535300     218.0429   -1271.0608    8.0888817   -1262.9719 
 6535400    223.12778   -1271.2578     8.277519   -1262.9803 
 6535500    233.04967   -1271.6096    8.6455977    -1262.964 
 6535600    234.05019   -1271.6107    8.6827148    -1262.928 
 6535700    235.26153   -1271.6018    8.7276526   -1262.8742 
 6535800    247.36087   -1271.9784    9.1765098   -1262.8019 
 6535900    248.31725   -1271.9289    9.2119892   -1262.7169 
 6536000    226.65277   -1271.0354    8.4082879   -1262.6271 
 6536100    227.06851   -1270.9483    8.4237106   -1262.5245 
 6536200    245.07276   -1271.4909    9.0916261   -1262.3993 
 6536300    230.82733   -1270.8325    8.5631542   -1262.2694 
 6536400    228.67024    -1270.625    8.4831311   -1262.1418 
 6536500    254.03081   -1271.4298    9.4239489   -1262.0059 
 6536600     259.9587   -1271.5213    9.6438598   -1261.8775 
 6536700    244.85594    -1270.857    9.0835829   -1261.7734 
 6536800    261.21749   -1271.3711    9.6905579   -1261.6806 
 6536900    265.36449   -1271.4431    9.8444021   -1261.5987 
 6537000    243.26534   -1270.5585    9.0245753    -1261.534 
 6537100    244.29732    -1270.534    9.0628594   -1261.4712 
 6537200    247.01737    -1270.567    9.1637667   -1261.4032 
 6537300    233.92893   -1270.0123    8.6782163    -1261.334 
 6537400    256.65084   -1270.7754    9.5211462   -1261.2543 
 6537500    256.14714   -1270.6731      9.50246   -1261.1706 
 6537600    240.26315   -1270.0055    8.9132012   -1261.0923 
 6537700    252.67411   -1270.3809    9.3736188   -1261.0072 
 6537800    269.67665   -1270.9196    10.004373   -1260.9152 
 6537900    260.56718   -1270.4974    9.6664331    -1260.831 
 6538000    256.11317   -1270.2551    9.5011997   -1260.7539 
 6538100    271.80622    -1270.759    10.083375   -1260.6756 
 6538200    275.37047   -1270.8197      10.2156   -1260.6041 
 6538300    273.16206   -1270.6789    10.133674   -1260.5452 
 6538400     266.9929   -1270.4019    9.9048122   -1260.4971 
 6538500    259.56065   -1270.0838    9.6290932   -1260.4547 
 6538600    254.46609   -1269.8523     9.440097   -1260.4122 
 6538700     268.6499   -1270.3314     9.966283   -1260.3651 
 6538800    275.99663   -1270.5587    10.238829   -1260.3199 
 6538900    267.13142   -1270.1943    9.9099511   -1260.2843 
 6539000      265.131   -1270.0891    9.8357402   -1260.2534 
 6539100    275.62423   -1270.4495    10.225014   -1260.2245 
 6539200    254.45169   -1269.6423    9.4395628   -12