ITEM: TIMESTEP
0
ITEM: NUMBER OF ATOMS
1728
ITEM: BOX BOUNDS pp pp pp
0.0000000000000000e+00 3.2579999999999998e+01
0.0000000000000000e+00 3.2579999999999998e+01
0.0000000000000000e+00 3.2579999999999998e+01
ITEM: ATOMS id type xs ys zs
1 1 0 0 0
5 1 0.0416667 0.0416667 0.0416667
9 1 0.166667 0 0
13 1 0.208333 0.0416667 0.0416667
17 1 0.333333 0 0
21 1 0.375 0.0416667 0.0416667
25 1 0.5 0 0
29 1 0.541667 0.0416667 0.0416667
33 1 0.666667 0 0
37 1 0.708333 0.0416667 0.0416667
41 1 0.833333 0 0
45 1 0.875 0.0416667 0.0416667
4 1 0.0833333 0.0833333 0
8 1 0.125 0.125 0.0416667
12 1 0.25 0.0833333 0
16 1 0.291667 0.125 0.0416667
20 1 0.416667 0.0833333 0
24 1 0.458333 0.125 0.0416667
28 1 0.583333 0.0833333 0
32 1 0.625 0.125 0.0416667
36 1 0.75 0.0833333 0
40 1 0.791667 0.125 0.0416667
44 1 0.916667 0.0833333 0
48 1 0.958333 0.125 0.0416667
49 1 0 0.166667 0
53 1 0.0416667 0.208333 0.0416667
57 1 0.166667 0.166667 0
61 1 0.208333 0.208333 0.0416667
65 1 0.333333 0.166667 0
69 1 0.375 0.208333 0.0416667
73 1 0.5 0.166667 0
77 1 0.541667 0.208333 0.0416667
81 1 0.666667 0.166667 0
85 1 0.708333 0.208333 0.0416667
89 1 0.833333 0.166667 0
93 1 0.875 0.208333 0.0416667
52 1 0.0833333 0.25 0
56 1 0.125 0.291667 0.0416667
60 1 0.25 0.25 0
64 1 0.291667 0.291667 0.0416667
68 1 0.416667 0.25 0
72 1 0.458333 0.291667 0.0416667
76 1 0.583333 0.25 0
80 1 0.625 0.291667 0.0416667
84 1 0.75 0.25 0
88 1 0.791667 0.291667 0.0416667
92 1 0.916667 0.25 0
96 1 0.958333 0.291667 0.0416667
97 1 0 0.333333 0
101 1 0.0416667 0.375 0.0416667
105 1 0.166667 0.333333 0
109 1 0.208333 0.375 0.0416667
113 1 0.333333 0.333333 0
117 1 0.375 0.375 0.0416667
121 1 0.5 0.333333 0
125 1 0.541667 0.375 0.0416667
129 1 0.666667 0.333333 0
133 1 0.708333 0.375 0.0416667
137 1 0.833333 0.333333 0
141 1 0.875 0.375 0.0416667
100 1 0.0833333 0.416667 0
104 1 0.125 0.458333 0.0416667
108 1 0.25 0.416667 0
112 1 0.291667 0.458333 0.0416667
116 1 0.416667 0.416667 0
120 1 0.458333 0.458333 0.0416667
124 1 0.583333 0.416667 0
128 1 0.625 0.458333 0.0416667
132 1 0.75 0.416667 0
136 1 0.791667 0.458333 0.0416667
140 1 0.916667 0.416667 0
144 1 0.958333 0.458333 0.0416667
145 1 0 0.5 0
149 1 0.0416667 0.541667 0.0416667
153 1 0.166667 0.5 0
157 1 0.208333 0.541667 0.0416667
161 1 0.333333 0.5 0
165 1 0.375 0.541667 0.0416667
169 1 0.5 0.5 0
173 1 0.541667 0.541667 0.0416667
177 1 0.666667 0.5 0
181 1 0.708333 0.541667 0.0416667
185 1 0.833333 0.5 0
189 1 0.875 0.541667 0.0416667
148 1 0.0833333 0.583333 0
152 1 0.125 0.625 0.0416667
156 1 0.25 0.583333 0
160 1 0.291667 0.625 0.0416667
164 1 0.416667 0.583333 0
168 1 0.458333 0.625 0.0416667
172 1 0.583333 0.583333 0
176 1 0.625 0.625 0.0416667
180 1 0.75 0.583333 0
184 1 0.791667 0.625 0.0416667
188 1 0.916667 0.583333 0
192 1 0.958333 0.625 0.0416667
193 1 0 0.666667 0
197 1 0.0416667 0.708333 0.0416667
201 1 0.166667 0.666667 0
205 1 0.208333 0.708333 0.0416667
209 1 0.333333 0.666667 0
213 1 0.375 0.708333 0.0416667
217 1 0.5 0.666667 0
221 1 0.541667 0.708333 0.0416667
225 1 0.666667 0.666667 0
229 1 0.708333 0.708333 0.0416667
233 1 0.833333 0.666667 0
237 1 0.875 0.708333 0.0416667
196 1 0.0833333 0.75 0
200 1 0.125 0.791667 0.0416667
204 1 0.25 0.75 0
208 1 0.291667 0.791667 0.0416667
212 1 0.416667 0.75 0
216 1 0.458333 0.791667 0.0416667
220 1 0.583333 0.75 0
224 1 0.625 0.791667 0.0416667
228 1 0.75 0.75 0
232 1 0.791667 0.791667 0.0416667
236 1 0.916667 0.75 0
240 1 0.958333 0.791667 0.0416667
241 1 0 0.833333 0
245 1 0.0416667 0.875 0.0416667
249 1 0.166667 0.833333 0
253 1 0.208333 0.875 0.0416667
257 1 0.333333 0.833333 0
261 1 0.375 0.875 0.0416667
265 1 0.5 0.833333 0
269 1 0.541667 0.875 0.0416667
273 1 0.666667 0.833333 0
277 1 0.708333 0.875 0.0416667
281 1 0.833333 0.833333 0
285 1 0.875 0.875 0.0416667
244 1 0.0833333 0.916667 0
248 1 0.125 0.958333 0.0416667
252 1 0.25 0.916667 0
256 1 0.291667 0.958333 0.0416667
260 1 0.416667 0.916667 0
264 1 0.458333 0.958333 0.0416667
268 1 0.583333 0.916667 0
272 1 0.625 0.958333 0.0416667
276 1 0.75 0.916667 0
280 1 0.791667 0.958333 0.0416667
284 1 0.916667 0.916667 0
288 1 0.958333 0.958333 0.0416667
3 1 0.0833333 0 0.0833333
7 1 0.125 0.0416667 0.125
11 1 0.25 0 0.0833333
15 1 0.291667 0.0416667 0.125
19 1 0.416667 0 0.0833333
23 1 0.458333 0.0416667 0.125
27 1 0.583333 0 0.0833333
31 1 0.625 0.0416667 0.125
35 1 0.75 0 0.0833333
39 1 0.791667 0.0416667 0.125
43 1 0.916667 0 0.0833333
47 1 0.958333 0.0416667 0.125
2 1 0 0.0833333 0.0833333
6 1 0.0416667 0.125 0.125
10 1 0.166667 0.0833333 0.0833333
14 1 0.208333 0.125 0.125
18 1 0.333333 0.0833333 0.0833333
22 1 0.375 0.125 0.125
26 1 0.5 0.0833333 0.0833333
30 1 0.541667 0.125 0.125
34 1 0.666667 0.0833333 0.0833333
38 1 0.708333 0.125 0.125
42 1 0.833333 0.0833333 0.0833333
46 1 0.875 0.125 0.125
51 1 0.0833333 0.166667 0.0833333
55 1 0.125 0.208333 0.125
59 1 0.25 0.166667 0.0833333
63 1 0.291667 0.208333 0.125
67 1 0.416667 0.166667 0.0833333
71 1 0.458333 0.208333 0.125
75 1 0.583333 0.166667 0.0833333
79 1 0.625 0.208333 0.125
83 1 0.75 0.166667 0.0833333
87 1 0.791667 0.208333 0.125
91 1 0.916667 0.166667 0.0833333
95 1 0.958333 0.208333 0.125
50 1 0 0.25 0.0833333
54 1 0.0416667 0.291667 0.125
58 1 0.166667 0.25 0.0833333
62 1 0.208333 0.291667 0.125
66 1 0.333333 0.25 0.0833333
70 1 0.375 0.291667 0.125
74 1 0.5 0.25 0.0833333
78 1 0.541667 0.291667 0.125
82 1 0.666667 0.25 0.0833333
86 1 0.708333 0.291667 0.125
90 1 0.833333 0.25 0.0833333
94 1 0.875 0.291667 0.125
99 1 0.0833333 0.333333 0.0833333
103 1 0.125 0.375 0.125
107 1 0.25 0.333333 0.0833333
111 1 0.291667 0.375 0.125
115 1 0.416667 0.333333 0.0833333
119 1 0.458333 0.375 0.125
123 1 0.583333 0.333333 0.0833333
127 1 0.625 0.375 0.125
131 1 0.75 0.333333 0.0833333
135 1 0.791667 0.375 0.125
139 1 0.916667 0.333333 0.0833333
143 1 0.958333 0.375 0.125
98 1 0 0.416667 0.0833333
102 1 0.0416667 0.458333 0.125
106 1 0.166667 0.416667 0.0833333
110 1 0.208333 0.458333 0.125
114 1 0.333333 0.416667 0.0833333
118 1 0.375 0.458333 0.125
122 1 0.5 0.416667 0.0833333
126 1 0.541667 0.458333 0.125
130 1 0.666667 0.416667 0.0833333
134 1 0.708333 0.458333 0.125
138 1 0.833333 0.416667 0.0833333
142 1 0.875 0.458333 0.125
147 1 0.0833333 0.5 0.0833333
151 1 0.125 0.541667 0.125
155 1 0.25 0.5 0.0833333
159 1 0.291667 0.541667 0.125
163 1 0.416667 0.5 0.0833333
167 1 0.458333 0.541667 0.125
171 1 0.583333 0.5 0.0833333
175 1 0.625 0.541667 0.125
179 1 0.75 0.5 0.0833333
183 1 0.791667 0.541667 0.125
187 1 0.916667 0.5 0.0833333
191 1 0.958333 0.541667 0.125
146 1 0 0.583333 0.0833333
150 1 0.0416667 0.625 0.125
154 1 0.166667 0.583333 0.0833333
158 1 0.208333 0.625 0.125
162 1 0.333333 0.583333 0.0833333
166 1 0.375 0.625 0.125
170 1 0.5 0.583333 0.0833333
174 1 0.541667 0.625 0.125
178 1 0.666667 0.583333 0.0833333
182 1 0.708333 0.625 0.125
186 1 0.833333 0.583333 0.0833333
190 1 0.875 0.625 0.125
195 1 0.0833333 0.666667 0.0833333
199 1 0.125 0.708333 0.125
203 1 0.25 0.666667 0.0833333
207 1 0.291667 0.708333 0.125
211 1 0.416667 0.666667 0.0833333
215 1 0.458333 0.708333 0.125
219 1 0.583333 0.666667 0.0833333
223 1 0.625 0.708333 0.125
227 1 0.75 0.666667 0.0833333
231 1 0.791667 0.708333 0.125
235 1 0.916667 0.666667 0.0833333
239 1 0.958333 0.708333 0.125
194 1 0 0.75 0.0833333
198 1 0.0416667 0.791667 0.125
202 1 0.166667 0.75 0.0833333
206 1 0.208333 0.791667 0.125
210 1 0.333333 0.75 0.0833333
214 1 0.375 0.791667 0.125
218 1 0.5 0.75 0.0833333
222 1 0.541667 0.791667 0.125
226 1 0.666667 0.75 0.0833333
230 1 0.708333 0.791667 0.125
234 1 0.833333 0.75 0.0833333
238 1 0.875 0.791667 0.125
243 1 0.0833333 0.833333 0.0833333
247 1 0.125 0.875 0.125
251 1 0.25 0.833333 0.0833333
255 1 0.291667 0.875 0.125
259 1 0.416667 0.833333 0.0833333
263 1 0.458333 0.875 0.125
267 1 0.583333 0.833333 0.0833333
271 1 0.625 0.875 0.125
275 1 0.75 0.833333 0.0833333
279 1 0.791667 0.875 0.125
283 1 0.916667 0.833333 0.0833333
287 1 0.958333 0.875 0.125
242 1 0 0.916667 0.0833333
246 1 0.0416667 0.958333 0.125
250 1 0.166667 0.916667 0.0833333
254 1 0.208333 0.958333 0.125
258 1 0.333333 0.916667 0.0833333
262 1 0.375 0.958333 0.125
266 1 0.5 0.916667 0.0833333
270 1 0.541667 0.958333 0.125
274 1 0.666667 0.916667 0.0833333
278 1 0.708333 0.958333 0.125
282 1 0.833333 0.916667 0.0833333
286 1 0.875 0.958333 0.125
289 1 0 0 0.166667
293 1 0.0416667 0.0416667 0.208333
297 1 0.166667 0 0.166667
301 1 0.208333 0.0416667 0.208333
305 1 0.333333 0 0.166667
309 1 0.375 0.0416667 0.208333
313 1 0.5 0 0.166667
317 1 0.541667 0.0416667 0.208333
321 1 0.666667 0 0.166667
325 1 0.708333 0.0416667 0.208333
329 1 0.833333 0 0.166667
333 1 0.875 0.0416667 0.208333
292 1 0.0833333 0.0833333 0.166667
296 1 0.125 0.125 0.208333
300 1 0.25 0.0833333 0.166667
304 1 0.291667 0.125 0.208333
308 1 0.416667 0.0833333 0.166667
312 1 0.458333 0.125 0.208333
316 1 0.583333 0.0833333 0.166667
320 1 0.625 0.125 0.208333
324 1 0.75 0.0833333 0.166667
328 1 0.791667 0.125 0.208333
332 1 0.916667 0.0833333 0.166667
336 1 0.958333 0.125 0.208333
337 1 0 0.166667 0.166667
341 1 0.0416667 0.208333 0.208333
345 1 0.166667 0.166667 0.166667
349 1 0.208333 0.208333 0.208333
353 1 0.333333 0.166667 0.166667
357 1 0.375 0.208333 0.208333
361 1 0.5 0.166667 0.166667
365 1 0.541667 0.208333 0.208333
369 1 0.666667 0.166667 0.166667
373 1 0.708333 0.208333 0.208333
377 1 0.833333 0.166667 0.166667
381 1 0.875 0.208333 0.208333
340 1 0.0833333 0.25 0.166667
344 1 0.125 0.291667 0.208333
348 1 0.25 0.25 0.166667
352 1 0.291667 0.291667 0.208333
356 1 0.416667 0.25 0.166667
360 1 0.458333 0.291667 0.208333
364 1 0.583333 0.25 0.166667
368 1 0.625 0.291667 0.208333
372 1 0.75 0.25 0.166667
376 1 0.791667 0.291667 0.208333
380 1 0.916667 0.25 0.166667
384 1 0.958333 0.291667 0.208333
385 1 0 0.333333 0.166667
389 1 0.0416667 0.375 0.208333
393 1 0.166667 0.333333 0.166667
397 1 0.208333 0.375 0.208333
401 1 0.333333 0.333333 0.166667
405 1 0.375 0.375 0.208333
409 1 0.5 0.333333 0.166667
413 1 0.541667 0.375 0.208333
417 1 0.666667 0.333333 0.166667
421 1 0.708333 0.375 0.208333
425 1 0.833333 0.333333 0.166667
429 1 0.875 0.375 0.208333
388 1 0.0833333 0.416667 0.166667
392 1 0.125 0.458333 0.208333
396 1 0.25 0.416667 0.166667
400 1 0.291667 0.458333 0.208333
404 1 0.416667 0.416667 0.166667
408 1 0.458333 0.458333 0.208333
412 1 0.583333 0.416667 0.166667
416 1 0.625 0.458333 0.208333
420 1 0.75 0.416667 0.166667
424 1 0.791667 0.458333 0.208333
428 1 0.916667 0.416667 0.166667
432 1 0.958333 0.458333 0.208333
433 1 0 0.5 0.166667
437 1 0.0416667 0.541667 0.208333
441 1 0.166667 0.5 0.166667
445 1 0.208333 0.541667 0.208333
449 1 0.333333 0.5 0.166667
453 1 0.375 0.541667 0.208333
457 1 0.5 0.5 0.166667
461 1 0.541667 0.541667 0.208333
465 1 0.666667 0.5 0.166667
469 1 0.708333 0.541667 0.208333
473 1 0.833333 0.5 0.166667
477 1 0.875 0.541667 0.208333
436 1 0.0833333 0.583333 0.166667
440 1 0.125 0.625 0.208333
444 1 0.25 0.583333 0.166667
448 1 0.291667 0.625 0.208333
452 1 0.416667 0.583333 0.166667
456 1 0.458333 0.625 0.208333
460 1 0.583333 0.583333 0.166667
464 1 0.625 0.625 0.208333
468 1 0.75 0.583333 0.166667
472 1 0.791667 0.625 0.208333
476 1 0.916667 0.583333 0.166667
480 1 0.958333 0.625 0.208333
481 1 0 0.666667 0.166667
485 1 0.0416667 0.708333 0.208333
489 1 0.166667 0.666667 0.166667
493 1 0.208333 0.708333 0.208333
497 1 0.333333 0.666667 0.166667
501 1 0.375 0.708333 0.208333
505 1 0.5 0.666667 0.166667
509 1 0.541667 0.708333 0.208333
513 1 0.666667 0.666667 0.166667
517 1 0.708333 0.708333 0.208333
521 1 0.833333 0.666667 0.166667
525 1 0.875 0.708333 0.208333
484 1 0.0833333 0.75 0.166667
488 1 0.125 0.791667 0.208333
492 1 0.25 0.75 0.166667
496 1 0.291667 0.791667 0.208333
500 1 0.416667 0.75 0.166667
504 1 0.458333 0.791667 0.208333
508 1 0.583333 0.75 0.166667
512 1 0.625 0.791667 0.208333
516 1 0.75 0.75 0.166667
520 1 0.791667 0.791667 0.208333
524 1 0.916667 0.75 0.166667
528 1 0.958333 0.791667 0.208333
529 1 0 0.833333 0.166667
533 1 0.0416667 0.875 0.208333
537 1 0.166667 0.833333 0.166667
541 1 0.208333 0.875 0.208333
545 1 0.333333 0.833333 0.166667
549 1 0.375 0.875 0.208333
553 1 0.5 0.833333 0.166667
557 1 0.541667 0.875 0.208333
561 1 0.666667 0.833333 0.166667
565 1 0.708333 0.875 0.208333
569 1 0.833333 0.833333 0.166667
573 1 0.875 0.875 0.208333
532 1 0.0833333 0.916667 0.166667
536 1 0.125 0.958333 0.208333
540 1 0.25 0.916667 0.166667
544 1 0.291667 0.958333 0.208333
548 1 0.416667 0.916667 0.166667
552 1 0.458333 0.958333 0.208333
556 1 0.583333 0.916667 0.166667
560 1 0.625 0.958333 0.208333
564 1 0.75 0.916667 0.166667
568 1 0.791667 0.958333 0.208333
572 1 0.916667 0.916667 0.166667
576 1 0.958333 0.958333 0.208333
291 1 0.0833333 0 0.25
295 1 0.125 0.0416667 0.291667
299 1 0.25 0 0.25
303 1 0.291667 0.0416667 0.291667
307 1 0.416667 0 0.25
311 1 0.458333 0.0416667 0.291667
315 1 0.583333 0 0.25
319 1 0.625 0.0416667 0.291667
323 1 0.75 0 0.25
327 1 0.791667 0.0416667 0.291667
331 1 0.916667 0 0.25
335 1 0.958333 0.0416667 0.291667
290 1 0 0.0833333 0.25
294 1 0.0416667 0.125 0.291667
298 1 0.166667 0.0833333 0.25
302 1 0.208333 0.125 0.291667
306 1 0.333333 0.0833333 0.25
310 1 0.375 0.125 0.291667
314 1 0.5 0.0833333 0.25
318 1 0.541667 0.125 0.291667
322 1 0.666667 0.0833333 0.25
326 1 0.708333 0.125 0.291667
330 1 0.833333 0.0833333 0.25
334 1 0.875 0.125 0.291667
339 1 0.0833333 0.166667 0.25
343 1 0.125 0.208333 0.291667
347 1 0.25 0.166667 0.25
351 1 0.291667 0.208333 0.291667
355 1 0.416667 0.166667 0.25
359 1 0.458333 0.208333 0.291667
363 1 0.583333 0.166667 0.25
367 1 0.625 0.208333 0.291667
371 1 0.75 0.166667 0.25
375 1 0.791667 0.208333 0.291667
379 1 0.916667 0.166667 0.25
383 1 0.958333 0.208333 0.291667
338 1 0 0.25 0.25
342 1 0.0416667 0.291667 0.291667
346 1 0.166667 0.25 0.25
350 1 0.208333 0.291667 0.291667
354 1 0.333333 0.25 0.25
358 1 0.375 0.291667 0.291667
362 1 0.5 0.25 0.25
366 1 0.541667 0.291667 0.291667
370 1 0.666667 0.25 0.25
374 1 0.708333 0.291667 0.291667
378 1 0.833333 0.25 0.25
382 1 0.875 0.291667 0.291667
387 1 0.0833333 0.333333 0.25
391 1 0.125 0.375 0.291667
395 1 0.25 0.333333 0.25
399 1 0.291667 0.375 0.291667
403 1 0.416667 0.333333 0.25
407 1 0.458333 0.375 0.291667
411 1 0.583333 0.333333 0.25
415 1 0.625 0.375 0.291667
419 1 0.75 0.333333 0.25
423 1 0.791667 0.375 0.291667
427 1 0.916667 0.333333 0.25
431 1 0.958333 0.375 0.291667
386 1 0 0.416667 0.25
390 1 0.0416667 0.458333 0.291667
394 1 0.166667 0.416667 0.25
398 1 0.208333 0.458333 0.291667
402 1 0.333333 0.416667 0.25
406 1 0.375 0.458333 0.291667
410 1 0.5 0.416667 0.25
414 1 0.541667 0.458333 0.291667
418 1 0.666667 0.416667 0.25
422 1 0.708333 0.458333 0.291667
426 1 0.833333 0.416667 0.25
430 1 0.875 0.458333 0.291667
435 1 0.0833333 0.5 0.25
439 1 0.125 0.541667 0.291667
443 1 0.25 0.5 0.25
447 1 0.291667 0.541667 0.291667
451 1 0.416667 0.5 0.25
455 1 0.458333 0.541667 0.291667
459 1 0.583333 0.5 0.25
463 1 0.625 0.541667 0.291667
467 1 0.75 0.5 0.25
471 1 0.791667 0.541667 0.291667
475 1 0.916667 0.5 0.25
479 1 0.958333 0.541667 0.291667
434 1 0 0.583333 0.25
438 1 0.0416667 0.625 0.291667
442 1 0.166667 0.583333 0.25
446 1 0.208333 0.625 0.291667
450 1 0.333333 0.583333 0.25
454 1 0.375 0.625 0.291667
458 1 0.5 0.583333 0.25
462 1 0.541667 0.625 0.291667
466 1 0.666667 0.583333 0.25
470 1 0.708333 0.625 0.291667
474 1 0.833333 0.583333 0.25
478 1 0.875 0.625 0.291667
483 1 0.0833333 0.666667 0.25
487 1 0.125 0.708333 0.291667
491 1 0.25 0.666667 0.25
495 1 0.291667 0.708333 0.291667
499 1 0.416667 0.666667 0.25
503 1 0.458333 0.708333 0.291667
507 1 0.583333 0.666667 0.25
511 1 0.625 0.708333 0.291667
515 1 0.75 0.666667 0.25
519 1 0.791667 0.708333 0.291667
523 1 0.916667 0.666667 0.25
527 1 0.958333 0.708333 0.291667
482 1 0 0.75 0.25
486 1 0.0416667 0.791667 0.291667
490 1 0.166667 0.75 0.25
494 1 0.208333 0.791667 0.291667
498 1 0.333333 0.75 0.25
502 1 0.375 0.791667 0.291667
506 1 0.5 0.75 0.25
510 1 0.541667 0.791667 0.291667
514 1 0.666667 0.75 0.25
518 1 0.708333 0.791667 0.291667
522 1 0.833333 0.75 0.25
526 1 0.875 0.791667 0.291667
531 1 0.0833333 0.833333 0.25
535 1 0.125 0.875 0.291667
539 1 0.25 0.833333 0.25
543 1 0.291667 0.875 0.291667
547 1 0.416667 0.833333 0.25
551 1 0.458333 0.875 0.291667
555 1 0.583333 0.833333 0.25
559 1 0.625 0.875 0.291667
563 1 0.75 0.833333 0.25
567 1 0.791667 0.875 0.291667
571 1 0.916667 0.833333 0.25
575 1 0.958333 0.875 0.291667
530 1 0 0.916667 0.25
534 1 0.0416667 0.958333 0.291667
538 1 0.166667 0.916667 0.25
542 1 0.208333 0.958333 0.291667
546 1 0.333333 0.916667 0.25
550 1 0.375 0.958333 0.291667
554 1 0.5 0.916667 0.25
558 1 0.541667 0.958333 0.291667
562 1 0.666667 0.916667 0.25
566 1 0.708333 0.958333 0.291667
570 1 0.833333 0.916667 0.25
574 1 0.875 0.958333 0.291667
577 1 0 0 0.333333
581 1 0.0416667 0.0416667 0.375
585 1 0.166667 0 0.333333
589 1 0.208333 0.0416667 0.375
593 1 0.333333 0 0.333333
597 1 0.375 0.0416667 0.375
601 1 0.5 0 0.333333
605 1 0.541667 0.0416667 0.375
609 1 0.666667 0 0.333333
613 1 0.708333 0.0416667 0.375
617 1 0.833333 0 0.333333
621 1 0.875 0.0416667 0.375
580 1 0.0833333 0.0833333 0.333333
584 1 0.125 0.125 0.375
588 1 0.25 0.0833333 0.333333
592 1 0.291667 0.125 0.375
596 1 0.416667 0.0833333 0.333333
600 1 0.458333 0.125 0.375
604 1 0.583333 0.0833333 0.333333
608 1 0.625 0.125 0.375
612 1 0.75 0.0833333 0.333333
616 1 0.791667 0.125 0.375
620 1 0.916667 0.0833333 0.333333
624 1 0.958333 0.125 0.375
625 1 0 0.166667 0.333333
629 1 0.0416667 0.208333 0.375
633 1 0.166667 0.166667 0.333333
637 1 0.208333 0.208333 0.375
641 1 0.333333 0.166667 0.333333
645 1 0.375 0.208333 0.375
649 1 0.5 0.166667 0.333333
653 1 0.541667 0.208333 0.375
657 1 0.666667 0.166667 0.333333
661 1 0.708333 0.208333 0.375
665 1 0.833333 0.166667 0.333333
669 1 0.875 0.208333 0.375
628 1 0.0833333 0.25 0.333333
632 1 0.125 0.291667 0.375
636 1 0.25 0.25 0.333333
640 1 0.291667 0.291667 0.375
644 1 0.416667 0.25 0.333333
648 1 0.458333 0.291667 0.375
652 1 0.583333 0.25 0.333333
656 1 0.625 0.291667 0.375
660 1 0.75 0.25 0.333333
664 1 0.791667 0.291667 0.375
668 1 0.916667 0.25 0.333333
672 1 0.958333 0.291667 0.375
673 1 0 0.333333 0.333333
677 1 0.0416667 0.375 0.375
681 1 0.166667 0.333333 0.333333
685 1 0.208333 0.375 0.375
689 1 0.333333 0.333333 0.333333
693 1 0.375 0.375 0.375
697 1 0.5 0.333333 0.333333
701 1 0.541667 0.375 0.375
705 1 0.666667 0.333333 0.333333
709 1 0.708333 0.375 0.375
713 1 0.833333 0.333333 0.333333
717 1 0.875 0.375 0.375
676 1 0.0833333 0.416667 0.333333
680 1 0.125 0.458333 0.375
684 1 0.25 0.416667 0.333333
688 1 0.291667 0.458333 0.375
692 1 0.416667 0.416667 0.333333
696 1 0.458333 0.458333 0.375
700 1 0.583333 0.416667 0.333333
704 1 0.625 0.458333 0.375
708 1 0.75 0.416667 0.333333
712 1 0.791667 0.458333 0.375
716 1 0.916667 0.416667 0.333333
720 1 0.958333 0.458333 0.375
721 1 0 0.5 0.333333
725 1 0.0416667 0.541667 0.375
729 1 0.166667 0.5 0.333333
733 1 0.208333 0.541667 0.375
737 1 0.333333 0.5 0.333333
741 1 0.375 0.541667 0.375
745 1 0.5 0.5 0.333333
749 1 0.541667 0.541667 0.375
753 1 0.666667 0.5 0.333333
757 1 0.708333 0.541667 0.375
761 1 0.833333 0.5 0.333333
765 1 0.875 0.541667 0.375
724 1 0.0833333 0.583333 0.333333
728 1 0.125 0.625 0.375
732 1 0.25 0.583333 0.333333
736 1 0.291667 0.625 0.375
740 1 0.416667 0.583333 0.333333
744 1 0.458333 0.625 0.375
748 1 0.583333 0.583333 0.333333
752 1 0.625 0.625 0.375
756 1 0.75 0.583333 0.333333
760 1 0.791667 0.625 0.375
764 1 0.916667 0.583333 0.333333
768 1 0.958333 0.625 0.375
769 1 0 0.666667 0.333333
773 1 0.0416667 0.708333 0.375
777 1 0.166667 0.666667 0.333333
781 1 0.208333 0.708333 0.375
785 1 0.333333 0.666667 0.333333
789 1 0.375 0.708333 0.375
793 1 0.5 0.666667 0.333333
797 1 0.541667 0.708333 0.375
801 1 0.666667 0.666667 0.333333
805 1 0.708333 0.708333 0.375
809 1 0.833333 0.666667 0.333333
813 1 0.875 0.708333 0.375
772 1 0.0833333 0.75 0.333333
776 1 0.125 0.791667 0.375
780 1 0.25 0.75 0.333333
784 1 0.291667 0.791667 0.375
788 1 0.416667 0.75 0.333333
792 1 0.458333 0.791667 0.375
796 1 0.583333 0.75 0.333333
800 1 0.625 0.791667 0.375
804 1 0.75 0.75 0.333333
808 1 0.791667 0.791667 0.375
812 1 0.916667 0.75 0.333333
816 1 0.958333 0.791667 0.375
817 1 0 0.833333 0.333333
821 1 0.0416667 0.875 0.375
825 1 0.166667 0.833333 0.333333
829 1 0.208333 0.875 0.375
833 1 0.333333 0.833333 0.333333
837 1 0.375 0.875 0.375
841 1 0.5 0.833333 0.333333
845 1 0.541667 0.875 0.375
849 1 0.666667 0.833333 0.333333
853 1 0.708333 0.875 0.375
857 1 0.833333 0.833333 0.333333
861 1 0.875 0.875 0.375
820 1 0.0833333 0.916667 0.333333
824 1 0.125 0.958333 0.375
828 1 0.25 0.916667 0.333333
832 1 0.291667 0.958333 0.375
836 1 0.416667 0.916667 0.333333
840 1 0.458333 0.958333 0.375
844 1 0.583333 0.916667 0.333333
848 1 0.625 0.958333 0.375
852 1 0.75 0.916667 0.333333
856 1 0.791667 0.958333 0.375
860 1 0.916667 0.916667 0.333333
864 1 0.958333 0.958333 0.375
579 1 0.0833333 0 0.416667
583 1 0.125 0.0416667 0.458333
587 1 0.25 0 0.416667
591 1 0.291667 0.0416667 0.458333
595 1 0.416667 0 0.416667
599 1 0.458333 0.0416667 0.458333
603 1 0.583333 0 0.416667
607 1 0.625 0.0416667 0.458333
611 1 0.75 0 0.416667
615 1 0.791667 0.0416667 0.458333
619 1 0.916667 0 0.416667
623 1 0.958333 0.0416667 0.458333
578 1 0 0.0833333 0.416667
582 1 0.0416667 0.125 0.458333
586 1 0.166667 0.0833333 0.416667
590 1 0.208333 0.125 0.458333
594 1 0.333333 0.0833333 0.416667
598 1 0.375 0.125 0.458333
602 1 0.5 0.0833333 0.416667
606 1 0.541667 0.125 0.458333
610 1 0.666667 0.0833333 0.416667
614 1 0.708333 0.125 0.458333
618 1 0.833333 0.0833333 0.416667
622 1 0.875 0.125 0.458333
627 1 0.0833333 0.166667 0.416667
631 1 0.125 0.208333 0.458333
635 1 0.25 0.166667 0.416667
639 1 0.291667 0.208333 0.458333
643 1 0.416667 0.166667 0.416667
647 1 0.458333 0.208333 0.458333
651 1 0.583333 0.166667 0.416667
655 1 0.625 0.208333 0.458333
659 1 0.75 0.166667 0.416667
663 1 0.791667 0.208333 0.458333
667 1 0.916667 0.166667 0.416667
671 1 0.958333 0.208333 0.458333
626 1 0 0.25 0.416667
630 1 0.0416667 0.291667 0.458333
634 1 0.166667 0.25 0.416667
638 1 0.208333 0.291667 0.458333
642 1 0.333333 0.25 0.416667
646 1 0.375 0.291667 0.458333
650 1 0.5 0.25 0.416667
654 1 0.541667 0.291667 0.458333
658 1 0.666667 0.25 0.416667
662 1 0.708333 0.291667 0.458333
666 1 0.833333 0.25 0.416667
670 1 0.875 0.291667 0.458333
675 1 0.0833333 0.333333 0.416667
679 1 0.125 0.375 0.458333
683 1 0.25 0.333333 0.416667
687 1 0.291667 0.375 0.458333
691 1 0.416667 0.333333 0.416667
695 1 0.458333 0.375 0.458333
699 1 0.583333 0.333333 0.416667
703 1 0.625 0.375 0.458333
707 1 0.75 0.333333 0.416667
711 1 0.791667 0.375 0.458333
715 1 0.916667 0.333333 0.416667
719 1 0.958333 0.375 0.458333
674 1 0 0.416667 0.416667
678 1 0.0416667 0.458333 0.458333
682 1 0.166667 0.416667 0.416667
686 1 0.208333 0.458333 0.458333
690 1 0.333333 0.416667 0.416667
694 1 0.375 0.458333 0.458333
698 1 0.5 0.416667 0.416667
702 1 0.541667 0.458333 0.458333
706 1 0.666667 0.416667 0.416667
710 1 0.708333 0.458333 0.458333
714 1 0.833333 0.416667 0.416667
718 1 0.875 0.458333 0.458333
723 1 0.0833333 0.5 0.416667
727 1 0.125 0.541667 0.458333
731 1 0.25 0.5 0.416667
735 1 0.291667 0.541667 0.458333
739 1 0.416667 0.5 0.416667
743 1 0.458333 0.541667 0.458333
747 1 0.583333 0.5 0.416667
751 1 0.625 0.541667 0.458333
755 1 0.75 0.5 0.416667
759 1 0.791667 0.541667 0.458333
763 1 0.916667 0.5 0.416667
767 1 0.958333 0.541667 0.458333
722 1 0 0.583333 0.416667
726 1 0.0416667 0.625 0.458333
730 1 0.166667 0.583333 0.416667
734 1 0.208333 0.625 0.458333
738 1 0.333333 0.583333 0.416667
742 1 0.375 0.625 0.458333
746 1 0.5 0.583333 0.416667
750 1 0.541667 0.625 0.458333
754 1 0.666667 0.583333 0.416667
758 1 0.708333 0.625 0.458333
762 1 0.833333 0.583333 0.416667
766 1 0.875 0.625 0.458333
771 1 0.0833333 0.666667 0.416667
775 1 0.125 0.708333 0.458333
779 1 0.25 0.666667 0.416667
783 1 0.291667 0.708333 0.458333
787 1 0.416667 0.666667 0.416667
791 1 0.458333 0.708333 0.458333
795 1 0.583333 0.666667 0.416667
799 1 0.625 0.708333 0.458333
803 1 0.75 0.666667 0.416667
807 1 0.791667 0.708333 0.458333
811 1 0.916667 0.666667 0.416667
815 1 0.958333 0.708333 0.458333
770 1 0 0.75 0.416667
774 1 0.0416667 0.791667 0.458333
778 1 0.166667 0.75 0.416667
782 1 0.208333 0.791667 0.458333
786 1 0.333333 0.75 0.416667
790 1 0.375 0.791667 0.458333
794 1 0.5 0.75 0.416667
798 1 0.541667 0.791667 0.458333
802 1 0.666667 0.75 0.416667
806 1 0.708333 0.791667 0.458333
810 1 0.833333 0.75 0.416667
814 1 0.875 0.791667 0.458333
819 1 0.0833333 0.833333 0.416667
823 1 0.125 0.875 0.458333
827 1 0.25 0.833333 0.416667
831 1 0.291667 0.875 0.458333
835 1 0.416667 0.833333 0.416667
839 1 0.458333 0.875 0.458333
843 1 0.583333 0.833333 0.416667
847 1 0.625 0.875 0.458333
851 1 0.75 0.833333 0.416667
855 1 0.791667 0.875 0.458333
859 1 0.916667 0.833333 0.416667
863 1 0.958333 0.875 0.458333
818 1 0 0.916667 0.416667
822 1 0.0416667 0.958333 0.458333
826 1 0.166667 0.916667 0.416667
830 1 0.208333 0.958333 0.458333
834 1 0.333333 0.916667 0.416667
838 1 0.375 0.958333 0.458333
842 1 0.5 0.916667 0.416667
846 1 0.541667 0.958333 0.458333
850 1 0.666667 0.916667 0.416667
854 1 0.708333 0.958333 0.458333
858 1 0.833333 0.916667 0.416667
862 1 0.875 0.958333 0.458333
865 1 0 0 0.5
869 1 0.0416667 0.0416667 0.541667
873 1 0.166667 0 0.5
877 1 0.208333 0.0416667 0.541667
881 1 0.333333 0 0.5
885 1 0.375 0.0416667 0.541667
889 1 0.5 0 0.5
893 1 0.541667 0.0416667 0.541667
897 1 0.666667 0 0.5
901 1 0.708333 0.0416667 0.541667
905 1 0.833333 0 0.5
909 1 0.875 0.0416667 0.541667
868 1 0.0833333 0.0833333 0.5
872 1 0.125 0.125 0.541667
876 1 0.25 0.0833333 0.5
880 1 0.291667 0.125 0.541667
884 1 0.416667 0.0833333 0.5
888 1 0.458333 0.125 0.541667
892 1 0.583333 0.0833333 0.5
896 1 0.625 0.125 0.541667
900 1 0.75 0.0833333 0.5
904 1 0.791667 0.125 0.541667
908 1 0.916667 0.0833333 0.5
912 1 0.958333 0.125 0.541667
913 1 0 0.166667 0.5
917 1 0.0416667 0.208333 0.541667
921 1 0.166667 0.166667 0.5
925 1 0.208333 0.208333 0.541667
929 1 0.333333 0.166667 0.5
933 1 0.375 0.208333 0.541667
937 1 0.5 0.166667 0.5
941 1 0.541667 0.208333 0.541667
945 1 0.666667 0.166667 0.5
949 1 0.708333 0.208333 0.541667
953 1 0.833333 0.166667 0.5
957 1 0.875 0.208333 0.541667
916 1 0.0833333 0.25 0.5
920 1 0.125 0.291667 0.541667
924 1 0.25 0.25 0.5
928 1 0.291667 0.291667 0.541667
932 1 0.416667 0.25 0.5
936 1 0.458333 0.291667 0.541667
940 1 0.583333 0.25 0.5
944 1 0.625 0.291667 0.541667
948 1 0.75 0.25 0.5
952 1 0.791667 0.291667 0.541667
956 1 0.916667 0.25 0.5
960 1 0.958333 0.291667 0.541667
961 1 0 0.333333 0.5
965 1 0.0416667 0.375 0.541667
969 1 0.166667 0.333333 0.5
973 1 0.208333 0.375 0.541667
977 1 0.333333 0.333333 0.5
981 1 0.375 0.375 0.541667
985 1 0.5 0.333333 0.5
989 1 0.541667 0.375 0.541667
993 1 0.666667 0.333333 0.5
997 1 0.708333 0.375 0.541667
1001 1 0.833333 0.333333 0.5
1005 1 0.875 0.375 0.541667
964 1 0.0833333 0.416667 0.5
968 1 0.125 0.458333 0.541667
972 1 0.25 0.416667 0.5
976 1 0.291667 0.458333 0.541667
980 1 0.416667 0.416667 0.5
984 1 0.458333 0.458333 0.541667
988 1 0.583333 0.416667 0.5
992 1 0.625 0.458333 0.541667
996 1 0.75 0.416667 0.5
1000 1 0.791667 0.458333 0.541667
1004 1 0.916667 0.416667 0.5
1008 1 0.958333 0.458333 0.541667
1009 1 0 0.5 0.5
1013 1 0.0416667 0.541667 0.541667
1017 1 0.166667 0.5 0.5
1021 1 0.208333 0.541667 0.541667
1025 1 0.333333 0.5 0.5
1029 1 0.375 0.541667 0.541667
1033 1 0.5 0.5 0.5
1037 1 0.541667 0.541667 0.541667
1041 1 0.666667 0.5 0.5
1045 1 0.708333 0.541667 0.541667
1049 1 0.833333 0.5 0.5
1053 1 0.875 0.541667 0.541667
1012 1 0.0833333 0.583333 0.5
1016 1 0.125 0.625 0.541667
1020 1 0.25 0.583333 0.5
1024 1 0.291667 0.625 0.541667
1028 1 0.416667 0.583333 0.5
1032 1 0.458333 0.625 0.541667
1036 1 0.583333 0.583333 0.5
1040 1 0.625 0.625 0.541667
1044 1 0.75 0.583333 0.5
1048 1 0.791667 0.625 0.541667
1052 1 0.916667 0.583333 0.5
1056 1 0.958333 0.625 0.541667
1057 1 0 0.666667 0.5
1061 1 0.0416667 0.708333 0.541667
1065 1 0.166667 0.666667 0.5
1069 1 0.208333 0.708333 0.541667
1073 1 0.333333 0.666667 0.5
1077 1 0.375 0.708333 0.541667
1081 1 0.5 0.666667 0.5
1085 1 0.541667 0.708333 0.541667
1089 1 0.666667 0.666667 0.5
1093 1 0.708333 0.708333 0.541667
1097 1 0.833333 0.666667 0.5
1101 1 0.875 0.708333 0.541667
1060 1 0.0833333 0.75 0.5
1064 1 0.125 0.791667 0.541667
1068 1 0.25 0.75 0.5
1072 1 0.291667 0.791667 0.541667
1076 1 0.416667 0.75 0.5
1080 1 0.458333 0.791667 0.541667
1084 1 0.583333 0.75 0.5
1088 1 0.625 0.791667 0.541667
1092 1 0.75 0.75 0.5
1096 1 0.791667 0.791667 0.541667
1100 1 0.916667 0.75 0.5
1104 1 0.958333 0.791667 0.541667
1105 1 0 0.833333 0.5
1109 1 0.0416667 0.875 0.541667
1113 1 0.166667 0.833333 0.5
1117 1 0.208333 0.875 0.541667
1121 1 0.333333 0.833333 0.5
1125 1 0.375 0.875 0.541667
1129 1 0.5 0.833333 0.5
1133 1 0.541667 0.875 0.541667
1137 1 0.666667 0.833333 0.5
1141 1 0.708333 0.875 0.541667
1145 1 0.833333 0.833333 0.5
1149 1 0.875 0.875 0.541667
1108 1 0.0833333 0.916667 0.5
1112 1 0.125 0.958333 0.541667
1116 1 0.25 0.916667 0.5
1120 1 0.291667 0.958333 0.541667
1124 1 0.416667 0.916667 0.5
1128 1 0.458333 0.958333 0.541667
1132 1 0.583333 0.916667 0.5
1136 1 0.625 0.958333 0.541667
1140 1 0.75 0.916667 0.5
1144 1 0.791667 0.958333 0.541667
1148 1 0.916667 0.916667 0.5
1152 1 0.958333 0.958333 0.541667
867 1 0.0833333 0 0.583333
871 1 0.125 0.0416667 0.625
875 1 0.25 0 0.583333
879 1 0.291667 0.0416667 0.625
883 1 0.416667 0 0.583333
887 1 0.458333 0.0416667 0.625
891 1 0.583333 0 0.583333
895 1 0.625 0.0416667 0.625
899 1 0.75 0 0.583333
903 1 0.791667 0.0416667 0.625
907 1 0.916667 0 0.583333
911 1 0.958333 0.0416667 0.625
866 1 0 0.0833333 0.583333
870 1 0.0416667 0.125 0.625
874 1 0.166667 0.0833333 0.583333
878 1 0.208333 0.125 0.625
882 1 0.333333 0.0833333 0.583333