LAMMPS (24 Jan 2020)
OMP_NUM_THREADS environment is not set. Defaulting to 1 thread. (src/comm.cpp:94)
  using 1 OpenMP thread(s) per MPI task
# ---------Initialize Simulation---------
clear
OMP_NUM_THREADS environment is not set. Defaulting to 1 thread. (src/comm.cpp:94)
  using 1 OpenMP thread(s) per MPI task
units 		metal
dimension 	3
boundary 	p p p   #p indicates that the boundary (x,y,z) is periodic  s is shrink-wrapped
atom_style 	atomic
atom_modify 	map array
variable	seed equal $s
variable	seed equal 1847875+7
variable	dump string $d
variable	dump string pelotonResults/cSiaSiInterface-1847875-7.xyz
variable	dumpA string ${dA}
variable	dumpA string pelotonResults/aSiBox-1847875-7.xyz
variable	dumpsnap string ${ds}
variable	dumpsnap string pelotonResults/cSiaSiInterfaceSnapshot-1847875-7.xyz
variable	snapTime equal $t
variable	snapTime equal 31000000
variable	zBotEdge equal $z
variable	zBotEdge equal 1.5779655626005251e-02
variable	peDump string ${pe}
variable	peDump string potentialEnergy-1847875-7
variable	deltaZ equal -v_zBotEdge/5.43
variable	vel_seed equal floor(random(0,100000,v_seed))
variable	anneal_seed equal floor(random(0,100000,v_seed))
print		"timestep is ${snapTime}"
timestep is 31000000
print		"seed is ${seed}"
seed is 1847882

# ---------Create dummy simulation box -----------------
lattice 	diamond 5.43 orient x 1 0 0 orient y 0 1 0 orient z 0 0 1
Lattice spacing in x,y,z = 5.43 5.43 5.43
region		BOX block 0 3 0 3 0 4 units lattice
create_box	1 BOX
Created orthogonal box = (0 0 0) to (16.29 16.29 21.72)
  2 by 1 by 2 MPI processor grid
mass		1 28.0855

# ---------Read in the already created amorphous structure --------------
read_dump	${dumpA} ${snapTime} x y z box yes add yes #3850000 should be whatever the last timestep is in the file
read_dump	pelotonResults/aSiBox-1847875-7.xyz ${snapTime} x y z box yes add yes 
read_dump	pelotonResults/aSiBox-1847875-7.xyz 31000000 x y z box yes add yes 
  orthogonal box = (0 0 0.0157797) to (16.29 16.29 16.2742)
  0 atoms before read
  216 atoms in snapshot
  0 atoms purged
  0 atoms replaced
  0 atoms trimmed
  216 atoms added
  216 atoms after read
change_box	all z delta ${deltaZ} ${deltaZ} units lattice
change_box	all z delta -0.00290601392744112 ${deltaZ} units lattice
change_box	all z delta -0.00290601392744112 -0.00290601392744112 units lattice
  orthogonal box = (0 0 -2.77556e-17) to (16.29 16.29 16.2584)
change_box	all z delta 0 1 units lattice
  orthogonal box = (0 0 -2.77556e-17) to (16.29 16.29 21.6884)
displace_atoms	all move 0 0 1 units lattice

lattice 	diamond 5.43 orient x 1 0 0 orient y 0 1 0 orient z 0 0 1
Lattice spacing in x,y,z = 5.43 5.43 5.43
region 		CrystallineBox block EDGE EDGE EDGE EDGE 0 0.87 units lattice
region		PURECRYSTALLINE block EDGE EDGE EDGE EDGE 0.25 0.75 units lattice

region		AmorphousBox block EDGE EDGE EDGE EDGE 0.87 EDGE units lattice
region		PUREAMORPHOUS block EDGE EDGE EDGE EDGE 1.5 3.5 units lattice

# ----------Define interatomic potential --------------
pair_style 	tersoff/mod/c
pair_coeff 	* * Si.tersoff.modc Si
Reading potential file Si.tersoff.modc with DATE: 2016-11-09

# --------- Delete the a-Si atoms to make way for the c-Si atoms --------
delete_atoms	region CrystallineBox
Deleted 0 atoms, new total = 216

# --------- Create the fixed crystalline structure -----------
create_atoms 	1 region CrystallineBox
Created 72 atoms
  create_atoms CPU = 0.000700196 secs

group		fixedatoms region CrystallineBox
72 atoms in group fixedatoms
group		mobileatoms subtract all fixedatoms
216 atoms in group mobileatoms

# --------- Delete any atoms within a 0.5 Angstrom cutoff radius -------
delete_atoms	overlap 0.5 mobileatoms fixedatoms
Neighbor list info ...
  update every 1 steps, delay 10 steps, check yes
  max neighbors/atom: 2000, page size: 100000
  master list distance cutoff = 5.20569
  ghost atom cutoff = 5.20569
  binsize = 2.60285, bins = 7 7 9
  2 neighbor lists, perpetual/occasional/extra = 1 1 0
  (1) command delete_atoms, occasional, copy from (2)
      attributes: full, newton on
      pair build: copy
      stencil: none
      bin: none
  (2) pair tersoff/mod/c, perpetual
      attributes: full, newton on
      pair build: full/bin/atomonly
      stencil: full/bin/3d
      bin: standard
Deleted 1 atoms, new total = 287
delete_atoms	overlap 0.5 fixedatoms fixedatoms
Deleted 0 atoms, new total = 287

# --------- Identify the relevant groups of atoms ------------
group		puremobile region PUREAMORPHOUS
145 atoms in group puremobile
group		purecrystalline region PURECRYSTALLINE
54 atoms in group purecrystalline

# ---------Define Potential Energy Outputs for Excess Energy Calculation --------------
compute		pe_aSi mobileatoms pe/atom
compute		pe_aSitotal mobileatoms reduce sum c_pe_aSi
variable	pe_aSiAverage equal c_pe_aSitotal/count(mobileatoms)

compute		pe_cSi fixedatoms pe/atom
compute		pe_cSitotal fixedatoms reduce sum c_pe_cSi
variable	pe_cSiAverage equal c_pe_cSitotal/count(fixedatoms)

compute		pe_aSi_pure puremobile pe/atom
compute		pe_aSi_puretotal puremobile reduce sum c_pe_aSi_pure
variable	pe_aSi_pureAverage equal c_pe_aSi_puretotal/count(puremobile)

compute		pe_cSi_pure purecrystalline pe/atom
compute		pe_cSi_puretotal purecrystalline reduce sum c_pe_cSi_pure
variable	pe_cSi_pureAverage equal c_pe_cSi_puretotal/count(purecrystalline)

variable	excessEnergy equal v_pe_aSiAverage-v_pe_cSiAverage
fix		pe_output all ave/time 100 5 10000 v_pe_aSiAverage v_pe_cSiAverage v_pe_aSi_pureAverage v_pe_cSi_pureAverage v_excessEnergy file ${peDump}.output
fix		pe_output all ave/time 100 5 10000 v_pe_aSiAverage v_pe_cSiAverage v_pe_aSi_pureAverage v_pe_cSi_pureAverage v_excessEnergy file potentialEnergy-1847875-7.output

# ----------Dump xyz file with atoms and bonds -----------
# Read with Ovito or jmol
dump 		1 all atom 100 ${dump}
dump 		1 all atom 100 pelotonResults/cSiaSiInterface-1847875-7.xyz
#dump_modify 	1 element Si

# ------- Initialize conditions ----------
#set initial temperature of deposited a-Si to be 1600K, so that we avoid a large strain on the system
#velocity  	mobileatoms create 300.0 ${vel_seed} mom yes rot yes dist gaussian  # mom and rot yes means net linear and angular momentum is zero
timestep 	.0001 #.1 fs

# ------- Display conditions each 1000 step
thermo_style 	custom step temp pe ke etotal
thermo 		100

# --------Run simulation -------------
#First perform potential energy minimization with a conjugate gradient method
min_style	hftn
minimize	1.0e-2 1.0e-3 100 1000
WARNING: Using 'neigh_modify every 1 delay 0 check yes' setting during minimization (src/min.cpp:178)
Neighbor list info ...
  update every 1 steps, delay 0 steps, check yes
  max neighbors/atom: 2000, page size: 100000
  master list distance cutoff = 5.20569
  ghost atom cutoff = 5.20569
  binsize = 2.60285, bins = 7 7 9
  1 neighbor lists, perpetual/occasional/extra = 1 0 0
  (1) pair tersoff/mod/c, perpetual
      attributes: full, newton on
      pair build: full/bin/atomonly
      stencil: full/bin/3d
      bin: standard
Per MPI rank memory allocation (min/avg/max) = 6.823 | 6.823 | 6.823 Mbytes
Step Temp PotEng KinEng TotEng 
31000000            0   -593.53923            0   -593.53923 
31000013            0   -1166.5553            0   -1166.5553 
Loop time of 0.140317 on 4 procs for 12 steps with 287 atoms

71.1% CPU use with 4 MPI tasks x 1 OpenMP threads

Minimization stats:
  Stopping criterion = energy tolerance
  Energy initial, next-to-last, final = 
        -593.539228218     -1095.08081585     -1166.55531493
  Force two-norm initial, final = 1606.02 96.7189
  Force max component initial, final = 565.999 20.8817
  Final line search alpha, max atom move = 0 0
  Iterations, force evaluations = 12 65

MPI task timing breakdown:
Section |  min time  |  avg time  |  max time  |%varavg| %total
---------------------------------------------------------------
Pair    | 0.030664   | 0.058882   | 0.083089   |   7.8 | 41.96
Neigh   | 0          | 0          | 0          |   0.0 |  0.00
Comm    | 0.042548   | 0.064524   | 0.090512   |   7.1 | 45.98
Output  | 0          | 0          | 0          |   0.0 |  0.00
Modify  | 0          | 0          | 0          |   0.0 |  0.00
Other   |            | 0.01691    |            |       | 12.05

Nlocal:    71.75 ave 77 max 68 min
Histogram: 2 0 0 0 0 0 1 0 0 1
Nghost:    460.25 ave 463 max 456 min
Histogram: 1 0 0 0 1 0 0 0 0 2
Neighs:    0 ave 0 max 0 min
Histogram: 4 0 0 0 0 0 0 0 0 0
FullNghs:  2023.5 ave 2152 max 1882 min
Histogram: 1 1 0 0 0 0 0 0 0 2

Total # of neighbors = 8094
Ave neighs/atom = 28.2021
Neighbor list builds = 0
Dangerous builds = 0

#Anneal the a-Si at 300K for 40 ps at a pressure of 0 GPa
velocity  	mobileatoms create 300.0 ${vel_seed} mom yes rot yes dist gaussian
velocity  	mobileatoms create 300.0 69347 mom yes rot yes dist gaussian
#fix		anneal mobileatoms npt temp 300.0 300.0 0.1 iso 0.0 0.0 0.1
fix		anneal mobileatoms nvt temp 300.0 300.0 0.1
run 		400000
Per MPI rank memory allocation (min/avg/max) = 4.198 | 4.198 | 4.198 Mbytes
Step Temp PotEng KinEng TotEng 
31000013    224.47552   -1166.5553    8.2985013   -1158.2568 
31000100    986.08379   -1194.9055    36.453942   -1158.4515 
31000200    1178.1613   -1204.6359    43.554739   -1161.0812 
31000300    1146.0732   -1207.2328    42.368493   -1164.8643 
31000400     1021.083   -1205.8238    37.747805    -1168.076 
31000500     801.4206   -1200.7433    29.627238   -1171.1161 
31000600    793.74937    -1203.074    29.343646   -1173.7304 
31000700    769.50374   -1204.9428    28.447323   -1176.4954 
31000800    779.93393   -1208.0437    28.832911   -1179.2108 
31000900    779.89493   -1210.9677    28.831469   -1182.1362 
31001000    680.48395   -1210.0018    25.156404   -1184.8454 
31001100    638.54934   -1210.7953    23.606148   -1187.1891 
31001200     686.8887   -1214.9239    25.393177   -1189.5308 
31001300    686.27053   -1217.4615    25.370324   -1192.0911 
31001400    615.06334   -1217.2391    22.737909   -1194.5012 
31001500    607.76289   -1219.1846    22.468022   -1196.7165 
31001600    611.29513   -1221.5269    22.598604   -1198.9283 
31001700    563.07836     -1221.88    20.816107   -1201.0639 
31001800    510.38999   -1221.8319    18.868302   -1202.9636 
31001900    446.38198   -1221.0895    16.502028   -1204.5875 
31002000    451.25799   -1222.6988    16.682286   -1206.0165 
31002100    445.91755   -1223.9449    16.484859     -1207.46 
31002200    404.26781   -1223.7355    14.945135   -1208.7904 
31002300    381.85616   -1224.0811    14.116612   -1209.9645 
31002400    385.60512   -1225.3471    14.255205   -1211.0919 
31002500    372.08427   -1225.9336    13.755361   -1212.1782 
31002600    354.86127    -1226.325    13.118654   -1213.2064 
31002700    318.05767   -1225.8847    11.758083   -1214.1266 
31002800    325.70799    -1226.992    12.040904   -1214.9511 
31002900    342.84403   -1228.4868    12.674396   -1215.8124 
31003000     328.2105   -1228.8042    12.133418   -1216.6708 
31003100    322.81823   -1229.4182    11.934074   -1217.4841 
31003200    327.09027   -1230.3879    12.092004   -1218.2959 
31003300    326.69031   -1231.1803    12.077219   -1219.1031 
31003400    312.30267   -1231.4426    11.545331   -1219.8973 
31003500    296.84469   -1231.6023    10.973874   -1220.6285 
31003600    306.79355   -1232.6774    11.341667   -1221.3357 
31003700    297.46375   -1233.0478    10.996759    -1222.051 
31003800    273.48993   -1232.8032    10.110486   -1222.6928 
31003900    295.85268   -1234.2561    10.937201   -1223.3189 
31004000    299.86968   -1235.0627    11.085703    -1223.977 
31004100    275.52481   -1234.7994    10.185712   -1224.6137 
31004200    261.31082   -1234.8384    9.6602432   -1225.1782 
31004300    275.35013   -1235.9102    10.179254    -1225.731 
31004400     259.3457   -1235.8668     9.587596   -1226.2792 
31004500    230.27456   -1235.2659    8.5128825    -1226.753 
31004600    239.27192   -1236.0255    8.8455004     -1227.18 
31004700    240.97774   -1236.5089     8.908562   -1227.6004 
31004800    243.77179   -1237.0223    9.0118535   -1228.0105 
31004900    219.07942   -1236.4925    8.0990161   -1228.3934 
31005000    197.64793   -1236.0163    7.3067279   -1228.7096 
31005100    201.90057    -1236.445    7.4639413   -1228.9811 
31005200     222.6378   -1237.4798    8.2305635   -1229.2493 
31005300    213.25504   -1237.3969    7.8836981   -1229.5132 
31005400    214.55844   -1237.6836    7.9318826   -1229.7517 
31005500    232.31277   -1238.5814    8.5882318   -1229.9932 
31005600    220.81723   -1238.3999    8.1632601   -1230.2367 
31005700    206.58905   -1238.0921    7.6372669   -1230.4548 
31005800    209.67403   -1238.4037    7.7513135   -1230.6523 
31005900    209.45472   -1238.5814    7.7432063   -1230.8382 
31006000    202.14029   -1238.4803    7.4728033   -1231.0075 
31006100    196.22875    -1238.408    7.2542634   -1231.1537 
31006200    192.49264   -1238.3942    7.1161453   -1231.2781 
31006300    183.88302   -1238.1752    6.7978613   -1231.3773 
31006400      176.882   -1237.9871    6.5390448    -1231.448 
31006500    176.73309   -1238.0232    6.5335396   -1231.4897 
31006600    188.73137   -1238.4817     6.977097   -1231.5046 
31006700    209.49653   -1239.2429    7.7447517   -1231.4981 
31006800    211.43155   -1239.2959    7.8162866   -1231.4796 
31006900    194.65349   -1238.6481    7.1960283   -1231.4521 
31007000     194.5508   -1238.6002     7.192232    -1231.408 
31007100    197.49156   -1238.6446    7.3009471   -1231.3436 
31007200    195.68891   -1238.4959    7.2343062   -1231.2616 
31007300    191.04774   -1238.2257    7.0627295    -1231.163 
31007400    199.96424   -1238.4358    7.3923583   -1231.0434 
31007500    207.71771   -1238.5811    7.6789917   -1230.9021 
31007600    210.87318   -1238.5429    7.7956442   -1230.7472 
31007700    215.24705   -1238.5395    7.9573394   -1230.5821 
31007800    213.74047   -1238.3118    7.9016435   -1230.4102 
31007900    203.00459   -1237.7434    7.5047553   -1230.2386 
31008000    208.00243   -1237.7494    7.6895174   -1230.0599 
31008100    225.56873   -1238.2009    8.3389152    -1229.862 
31008200    232.49849   -1238.2507    8.5950975   -1229.6556 
31008300    223.45222   -1237.7197    8.2606713    -1229.459 
31008400    217.58629   -1237.3165    8.0438172   -1229.2727 
31008500    210.49113   -1236.8703    7.7815207   -1229.0888 
31008600    219.11166   -1237.0013    8.1002079   -1228.9011 
31008700    243.71312    -1237.706    9.0096845   -1228.6963 
31008800    236.66407   -1237.2472    8.7490925   -1228.4981 
31008900    227.54907    -1236.735    8.4121255   -1228.3229 
31009000    251.97821   -1237.4626    9.3152316   -1228.1474 
31009100     259.8887   -1237.5892    9.6076697   -1227.9816 
31009200    245.63426   -1236.9303    9.0807058   -1227.8496 
31009300    258.64232   -1237.2981    9.5615932   -1227.7365 
31009400    267.31841   -1237.5306    9.8823342   -1227.6483 
31009500    259.78623   -1237.1994    9.6038818   -1227.5956 
31009600    265.36602   -1237.3853    9.8101574   -1227.5751 
31009700    257.86832   -1237.1215    9.5329796   -1227.5886 
31009800    237.84454   -1236.4205    8.7927326   -1227.6278 
31009900    230.66346   -1236.2027    8.5272592   -1227.6755 
31010000    246.20564    -1236.833     9.101829   -1227.7312 
31010100    251.86857   -1237.1178    9.3111783   -1227.8066 
31010200    257.00617   -1237.4069    9.5011071   -1227.9058 
31010300    271.58932   -1238.0787    10.040223   -1228.0385 
31010400    264.08557   -1237.9761    9.7628215   -1228.2133 
31010500    247.29646   -1237.5498    9.1421548   -1228.4076 
31010600    247.07634   -1237.7483    9.1340174   -1228.6142 
31010700    243.30133   -1237.8279    8.9944614   -1228.8335 
31010800    244.32708    -1238.095    9.0323816   -1229.0626 
31010900    237.55089   -1238.0826    8.7818765   -1229.3007 
31011000    221.17989   -1237.7068     8.176667   -1229.5301 
31011100    217.73652   -1237.7904    8.0493709    -1229.741 
31011200    233.11966   -1238.5688    8.6180612   -1229.9508 
31011300    230.76185    -1238.702    8.5308966   -1230.1712 
31011400    206.76575    -1238.018    7.6437994   -1230.3742 
31011500    211.80387   -1238.3829    7.8300504   -1230.5529 
31011600    221.68159   -1238.9244     8.195214   -1230.7292 
31011700    231.21682   -1239.4548    8.5477164   -1230.9071 
31011800    229.43545    -1239.575     8.481862   -1231.0931 
31011900     202.0755   -1238.7345    7.4704083   -1231.2641 
31012000    204.42608   -1238.9648    7.5573055   -1231.4075 
31012100    215.68915    -1239.519    7.9736831   -1231.5453 
31012200    192.13201   -1238.7721    7.1028133   -1231.6693 
31012300    178.75963   -1238.3684    6.6084576     -1231.76 
31012400    191.64694   -1238.9095    7.0848809   -1231.8246 
31012500     201.1178   -1239.3073    7.4350035   -1231.8723 
31012600    202.55352   -1239.3932    7.4880797   -1231.9051 
31012700    203.88897   -1239.4611    7.5374493   -1231.9236 
31012800    196.78636   -1239.2026    7.2748772   -1231.9278 
31012900    194.78968   -1239.1153    7.2010629   -1231.9143 
31013000    211.39574   -1239.6965    7.8149627   -1231.8816 
31013100    203.70228   -1239.3673    7.5305476   -1231.8368 
31013200    187.62459   -1238.7183    6.9361811   -1231.7821 
31013300    202.25136   -1239.1824    7.4769094   -1231.7055 
31013400    212.18196   -1239.4517    7.8440281   -1231.6076 
31013500    219.72055   -1239.6208    8.1227175   -1231.4981 
31013600    220.16795   -1239.5215    8.1392572   -1231.3822 
31013700    216.23032   -1239.2595    7.9936891   -1231.2658 
31013800    217.11634   -1239.1708    8.0264439   -1231.1443 
31013900    206.68479   -1238.6616    7.6408064   -1231.0208 
31014000    206.22404   -1238.5145     7.623773   -1230.8907 
31014100    212.57392   -1238.6058    7.8585181   -1230.7473 
31014200     221.7327   -1238.7888    8.1971034   -1230.5917 
31014300    223.73336    -1238.702    8.2710649    -1230.431 
31014400    220.67344   -1238.4305    8.1579443   -1230.2725 
31014500    223.08847   -1238.3609     8.247224   -1230.1137 
31014600    229.42725   -1238.4348    8.4815586   -1229.9533 
31014700    234.42754   -1238.4595    8.6664113   -1229.7931 
31014800    223.69521   -1237.9128    8.2696544   -1229.6432 
31014900    221.87789   -1237.7032    8.2024711   -1229.5007 
31015000    237.65906   -1238.1389    8.7858757    -1229.353 
31015100    232.52144   -1237.8066    8.5959461   -1229.2107 
31015200    227.18834   -1237.4794    8.3987897   -1229.0806 
31015300    232.10975   -1237.5344    8.5807266   -1228.9537 
31015400    242.38973   -1237.7905    8.9607609   -1228.8297 
31015500    248.87225   -1237.9161    9.2004092   -1228.7156 
31015600    240.83407    -1237.524    8.9032506   -1228.6207 
31015700    237.31147   -1237.3154    8.7730257   -1228.5424 
31015800    254.47461   -1237.8812    9.4075196   -1228.4737 
31015900    253.35649   -1237.7916    9.3661844   -1228.4254 
31016000    242.28634   -1237.3585    8.9569385   -1228.4016 
31016100    257.93379   -1237.9298       9.5354   -1228.3944 
31016200    272.05132   -1238.4737    10.057302   -1228.4164 
31016300    245.75108   -1237.5595    9.0850246   -1228.4745 
31016400    240.95332   -1237.4546     8.907659   -1228.5469 
31016500    254.78087   -1238.0562    9.4188416   -1228.6374 
31016600     241.1137   -1237.6639    8.9135879   -1228.7504 
31016700    224.04926   -1237.1494    8.2827429   -1228.8667 
31016800    235.38126   -1237.6847     8.701669    -1228.983 
31016900    234.76051   -1237.7896    8.6787207   -1229.1108 
31017000    231.97925   -1237.8179    8.5759022    -1229.242 
31017100    243.56433   -1238.3883    9.0041839   -1229.3841 
31017200    221.26123    -1237.714     8.179674   -1229.5343 
31017300    211.98928   -1237.5046    7.8369048   -1229.6677 
31017400    238.98701   -1238.6359    8.8349679   -1229.8009 
31017500    241.33313   -1238.8756       8.9217   -1229.9539 
31017600    221.95798   -1238.3137    8.2054316   -1230.1083 
31017700    224.14827   -1238.5415    8.2864031    -1230.255 
31017800    222.19891   -1238.6155    8.2143383   -1230.4012 
31017900    217.07475   -1238.5653    8.0249066   -1230.5404 
31018000    226.03971   -1239.0315    8.3563267   -1230.6751 
31018100    223.94959   -1239.0922    8.2790585   -1230.8131 
31018200    212.97186    -1238.816    7.8732293   -1230.9428 
31018300    213.42723   -1238.9521    7.8900636    -1231.062 
31018400    203.42301   -1238.6897    7.5202234   -1231.1695 
31018500    208.58886   -1238.9718    7.7111967   -1231.2606 
31018600    217.66751   -1239.3928      8.04682    -1231.346 
31018700    199.14535   -1238.7836    7.3620853   -1231.4215 
31018800    208.46041   -1239.1862     7.706448   -1231.4798 
31018900    209.87047   -1239.2876     7.758576    -1231.529 
31019000    197.19458   -1238.8557    7.2899683   -1231.5657 
31019100    201.13057   -1239.0203    7.4354757   -1231.5848 
31019200    199.19635   -1238.9524    7.3639707   -1231.5884 
31019300    191.85528   -1238.6679    7.0925832   -1231.5753 
31019400    207.82374   -1239.2248    7.6829116   -1231.5418 
31019500     212.6115   -1239.3537    7.8599071   -1231.4938 
31019600    210.73784   -1239.2278    7.7906412   -1231.4371 
31019700    217.40956   -1239.4082    8.0372841    -1231.371 
31019800    215.81638   -1239.2757    7.9783867   -1231.2974 
31019900    206.13432   -1238.8412    7.6204561   -1231.2207 
31020000    221.61714   -1239.3241    8.1928312   -1231.1313 
31020100    222.21608   -1239.2499    8.2149734   -1231.0349 
31020200    218.48173   -1239.0151    8.0769204   -1230.9382 
31020300    208.78405   -1238.5585    7.7184126   -1230.8401 
31020400    199.09385   -1238.0969    7.3601813   -1230.7367 
31020500    206.52684   -1238.2544    7.6349673   -1230.6194 
31020600    220.81668   -1238.6467    8.1632398   -1230.4835 
31020700    231.53685   -1238.8977    8.5595472   -1230.3382 
31020800    230.23547   -1238.7069    8.5114371   -1230.1954 
31020900    229.21338   -1238.5341    8.4736522   -1230.0605 
31021000    237.00761   -1238.6902    8.7617926   -1229.9284 
31021100    237.16421   -1238.5711    8.7675817   -1229.8035 
31021200    223.69777   -1237.9618    8.2697489    -1229.692 
31021300    220.57323   -1237.7405    8.1542397   -1229.5862 
31021400    241.40236   -1238.3993    8.9242594   -1229.4751 
31021500    241.46057   -1238.2958    8.9264111   -1229.3694 
31021600    223.86216    -1237.557    8.2758263   -1229.2812 
31021700    230.08222   -1237.7031     8.505772   -1229.1973 
31021800    251.04718   -1238.3938    9.2808131    -1229.113 
31021900    244.98353   -1238.1017    9.0566496    -1229.045 
31022000    237.03602   -1237.7591    8.7628429   -1228.9963 
31022100    250.46345   -1238.2177    9.2592335   -1228.9584 
31022200    249.15608   -1238.1503     9.210902   -1228.9394 
31022300     237.5031     -1237.72    8.7801099   -1228.9399 
31022400    250.00615   -1238.1954    9.2423278   -1228.9531 
31022500    242.59307   -1237.9539    8.9682781   -1228.9856 
31022600    233.89624   -1237.6774    8.6467701   -1229.0306 
31022700    246.59913    -1238.202    9.1163757   -1229.0857 
31022800    239.41023   -1238.0089    8.8506134   -1229.1583 
31022900     224.3283   -1237.5302    8.2930587   -1229.2372 
31023000    224.06733   -1237.5981    8.2834108   -1229.3147 
31023100    228.30043   -1237.8325    8.4399021   -1229.3926 
31023200    235.42798   -1238.1794    8.7033962   -1229.4761 
31023300    237.34895    -1238.343    8.7744114   -1229.5686 
31023400    247.40705   -1238.8208    9.1462432   -1229.6746 
31023500    235.54018   -1238.5051     8.707544   -1229.7975 
31023600     214.8976   -1237.8608    7.9444209   -1229.9164 
31023700    231.24511   -1238.5781    8.5487619   -1230.0293 
31023800    230.42359   -1238.6703    8.5183918   -1230.1519 
31023900    220.76998   -1238.4331    8.1615134   -1230.2716 
31024000    232.61077   -1238.9907    8.5992485   -1230.3914 
31024100    223.92301   -1238.7947    8.2780757   -1230.5166 
31024200     210.8942    -1238.429    7.7964216   -1230.6326 
31024300    219.20783   -1238.8419    8.1037632   -1230.7381 
31024400    227.85116   -1239.2684    8.4232933   -1230.8451 
31024500    217.77187   -1239.0026     8.050678   -1230.9519 
31024600    209.15865   -1238.7806    7.7322608   -1231.0483 
31024700    211.63448   -1238.9572    7.8237884   -1231.1334 
31024800    200.79717   -1238.6311    7.4231506    -1231.208 
31024900    183.51373    -1238.045    6.7842093   -1231.2608 
31025000    200.19188   -1238.6903    7.4007738   -1231.2895 
31025100    216.16833   -1239.2961    7.9913975   -1231.3047 
31025200    206.22053   -1238.9362    7.6236435   -1231.3126 
31025300    208.27873   -1239.0084    7.6997317   -1231.3086 
31025400    228.42817   -1239.7387    8.4446242    -1231.294 
31025500    226.19964   -1239.6421    8.3622392   -1231.2799 
31025600    220.34419   -1239.4131    8.1457726   -1231.2673 
31025700    223.24287   -1239.5053    8.2529321   -1231.2523 
31025800     213.9512   -1239.1452    7.9094337   -1231.2357 
31025900    218.71459   -1239.2984    8.0855289   -1231.2129 
31026000    218.90961   -1239.2776    8.0927385   -1231.1849 
31026100    204.92639   -1238.7289    7.5758011   -1231.1531 
31026200    205.54729    -1238.709    7.5987548   -1231.1102 
31026300    205.19374   -1238.6395    7.5856844   -1231.0538 
31026400     200.9802   -1238.4152    7.4299166   -1230.9853 
31026500    209.34317   -1238.6406    7.7390825   -1230.9015 
31026600    236.09298   -1239.5285    8.7279801   -1230.8006 
31026700    228.15667   -1239.1347    8.4345874   -1230.7002 
31026800    217.22982   -1238.6407    8.0306392   -1230.6101 
31026900    240.70876   -1239.4119    8.8986182   -1230.5133 
31027000    229.42391   -1238.9041    8.4814352   -1230.4227 
31027100    207.22285   -1238.0045    7.6606975   -1230.3438 
31027200    225.35412   -1238.5875    8.3309817   -1230.2566 
31027300    244.55946   -1239.2016    9.0409723   -1230.1606 
31027400    235.11877   -1238.7691     8.691965   -1230.0772 
31027500     236.7963   -1238.7593    8.7539808   -1230.0053 
31027600    234.33606   -1238.6049    8.6630294   -1229.9419 
31027700    223.20877   -1238.1392    8.2516715   -1229.8875 
31027800    218.47157   -1237.9113    8.0765446   -1229.8347 
31027900    236.01625   -1238.5027    8.7251436   -1229.7775 
31028000    247.76609   -1238.8839    9.1595161   -1229.7244 
31028100    232.06001   -1238.2671    8.5788875   -1229.6882 
31028200    238.16184   -1238.4653    8.8044625   -1229.6608 
31028300    255.59305   -1239.0925    9.4488664   -1229.6437 
31028400    238.72038   -1238.4741    8.8251109    -1229.649 
31028500    218.19901   -1237.7309    8.0664686   -1229.6644 
31028600    219.76225   -1237.8005    8.1242592   -1229.6762 
31028700    231.43046   -1238.2413    8.5556143   -1229.6856 
31028800    238.74065   -1238.5266      8.82586   -1229.7007 
31028900     226.6756   -1238.1051    8.3798346   -1229.7253 
31029000     219.5231   -1237.8657    8.1154179   -1229.7503 
31029100     242.7051   -1238.7477    8.9724195   -1229.7753 
31029200    246.25837    -1238.919    9.1037782   -1229.8152 
31029300    231.76188   -1238.4377    8.5678662   -1229.8698 
31029400    229.78313   -1238.4231    8.4947149   -1229.9284 
31029500    248.26208   -1239.1736    9.1778521   -1229.9957 
31029600    237.04646    -1238.845    8.7632286   -1230.0818 
31029700    221.78479   -1238.3688    8.1990293   -1230.1698 
31029800    233.12086   -1238.8763    8.6181054   -1230.2582 
31029900    224.74983   -1238.6611     8.308642   -1230.3525 
31030000    215.13451   -1238.3946    7.9531788   -1230.4414 
31030100    226.41387   -1238.8959    8.3701589   -1230.5257 
31030200    219.63694   -1238.7314    8.1196267   -1230.6117 
31030300    208.02691   -1238.3792    7.6904224   -1230.6888 
31030400    219.49804   -1238.8705    8.1144918    -1230.756 
31030500    223.84949   -1239.0976    8.2753578   -1230.8222 
31030600     223.7585   -1239.1596    8.2719941   -1230.8876 
31030700    222.92768   -1239.1943    8.2412798    -1230.953 
31030800    215.78178   -1238.9921    7.9771073    -1231.015 
31030900    215.81322   -1239.0491    7.9782698   -1231.0709 
31031000    205.15842   -1238.7028    7.5843788   -1231.1184 
31031100    207.99633   -1238.8419    7.6892919   -1231.1526 
31031200    215.53204   -1239.1447     7.967875   -1231.1768 
31031300    218.93873   -1239.2889     8.093815    -1231.195 
31031400    218.30583   -1239.2796    8.0704175   -1231.2092 
31031500      219.444   -1239.3315     8.112494    -1231.219 
31031600    219.61836   -1239.3443    8.1189399   -1231.2253 
31031700    211.49449   -1239.0461    7.8186131   -1231.2275 
31031800     204.7542   -1238.7902    7.5694355   -1231.2208 
31031900    210.17343   -1238.9712    7.7697756   -1231.2014 
31032000    215.66382   -1239.1439    7.9727466   -1231.1711 
31032100    225.61493   -1239.4744    8.3406232   -1231.1338 
31032200    222.11783   -1239.3067    8.2113411   -1231.0953 
31032300    227.13157   -1239.4528    8.3966911   -1231.0561 
31032400    225.68497   -1239.3606    8.3432124   -1231.0174 
31032500    216.45959   -1238.9825     8.002165   -1230.9803 
31032600     222.7816   -1239.1744    8.2358794   -1230.9385 
31032700    220.54448   -1239.0473    8.1531768   -1230.8941 
31032800    209.01037   -1238.5745    7.7267791   -1230.8478 
31032900    205.15504   -1238.3778    7.5842538   -1230.7935 
31033000    227.59147   -1239.1381    8.4136927   -1230.7244 
31033100    227.54348   -1239.0632    8.4119187   -1230.6513 
31033200    212.39045   -1238.4349    7.8517355   -1230.5831 
31033300    222.51586   -1238.7354    8.2260556   -1230.5094 
31033400    239.79422   -1239.2937     8.864809   -1230.4289 
31033500    244.14245   -1239.3817    9.0255563   -1230.3562 
31033600    232.25726   -1238.8849    8.5861796   -1230.2987 
31033700    214.50248   -1238.1805    7.9298138   -1230.2507 
31033800    225.60184   -1238.5385    8.3401396   -1230.1984 
31033900    242.98073   -1239.1255    8.9826093   -1230.1429 
31034000    230.22542     -1238.61    8.5110657   -1230.0989 
31034100      228.041   -1238.4925    8.4303111   -1230.0622 
31034200    232.63837   -1238.6281    8.6002687   -1230.0278 
31034300    231.73506   -1238.5658    8.5668746    -1229.999 
31034400    233.97248   -1238.6254    8.6495884   -1229.9758 
31034500    238.61053   -1238.7809    8.8210498   -1229.9598 
31034600    227.58992   -1238.3671    8.4136356   -1229.9535 
31034700    230.55468   -1238.4741     8.523238   -1229.9508 
31034800    235.87692    -1238.673    8.7199928    -1229.953 
31034900     230.4226   -1238.4813     8.518355   -1229.9629 
31035000    236.72197   -1238.7297     8.751233   -1229.9785 
31035100    237.66685   -1238.7899    8.7861636   -1230.0037 
31035200    228.80493   -1238.4964    8.4585524   -1230.0379 
31035300    224.25132   -1238.3649     8.290213   -1230.0747 
31035400    223.37951   -1238.3693    8.2579835   -1230.1114 
31035500     224.7192    -1238.455    8.3075095   -1230.1475 
31035600     225.9296   -1238.5364    8.3522562   -1230.1842 
31035700    227.02141   -1238.6147    8.3926187   -1230.2221 
31035800    223.94976   -1238.5411    8.2790648    -1230.262 
31035900    213.15121   -1238.1793    7.8798596   -1230.2994 
31036000    225.73011   -1238.6752    8.3448814   -1230.3303 
31036100    243.51507   -1239.3678    9.0023629   -1230.3654 
31036200    242.06246   -1239.3642    8.9486621   -1230.4156 
31036300    233.92784   -1239.1261    8.6479383   -1230.4781 
31036400    226.15539   -1238.9062    8.3606031   -1230.5456 
31036500    224.52081   -1238.9136    8.3001756   -1230.6134 
31036600    221.66118   -1238.8753    8.1944595   -1230.6809 
31036700    214.61527   -1238.6781    7.9339834   -1230.7441 
31036800    215.24576   -1238.7572    7.9572917      -1230.8 
31036900    220.02351   -1238.9842    8.1339176   -1230.8503 
31037000    215.12009     -1238.85    7.9526457   -1230.8973 
31037100    201.43627   -1238.3816    7.4467769   -1230.9348 
31037200    216.76452   -1238.9719    8.0134379   -1230.9585 
31037300    235.71675   -1239.6932    8.7140715   -1230.9792 
31037400     229.5227   -1239.4925    8.4850872   -1231.0074 
31037500    215.70155   -1239.0116    7.9741416   -1231.0374 
31037600    216.84367    -1239.078    8.0163639   -1231.0616 
31037700     211.7947   -1238.9097    7.8297114     -1231.08 
31037800    198.73769   -1238.4355    7.3470146   -1231.0885 
31037900     199.8589   -1238.4692    7.3884641   -1231.0807 
31038000    218.36746   -1239.1293     8.072696   -1231.0566 
31038100    223.55074   -1239.2896    8.2643136   -1231.0253 
31038200    217.21352   -1239.0228    8.0300365   -1230.9927 
31038300    216.34636    -1238.954    7.9979792    -1230.956 
31038400    229.57905   -1239.4001    8.4871706   -1230.9129 
31038500    227.56708   -1239.2838    8.4127911    -1230.871 
31038600    221.15885    -1239.008     8.175889   -1230.8321 
31038700    224.25124   -1239.0819    8.2902099   -1230.7917 
31038800    225.32754   -1239.0801    8.3299988   -1230.7501 
31038900    212.52893    -1238.566    7.8568548   -1230.7092 
31039000    223.24175   -1238.9149    8.2528907    -1230.662 
31039100    238.30521     -1239.42    8.8097628   -1230.6103 
31039200    227.85615   -1238.9902    8.4234778   -1230.5667 
31039300    219.26431   -1238.6339    8.1058511   -1230.5281 
31039400    224.56661   -1238.7884    8.3018686   -1230.4865 
31039500    223.25373   -1238.6971    8.2533335   -1230.4438 
31039600    217.55398   -1238.4432     8.042623   -1230.4006 
31039700    229.94058   -1238.8536    8.5005355    -1230.353 
31039800    237.09406   -1239.0713    8.7649885   -1230.3063 
31039900    220.01411    -1238.402    8.1335698   -1230.2685 
31040000    213.96221   -1238.1404     7.909841   -1230.2306 
31040100    231.42491   -1238.7405    8.5554088   -1230.1851 
31040200    230.35431    -1238.657    8.5158305   -1230.1411 
31040300    222.98609   -1238.3459    8.2434392   -1230.1024 
31040400    230.82907   -1238.5968    8.5333816   -1230.0635 
31040500    235.89717   -1238.7484    8.7207411   -1230.0276 
31040600    254.64941   -1239.4145    9.4139815   -1230.0005 
31040700    242.29343   -1238.9519    8.9572009   -1229.9947 
31040800    223.45544   -1238.2634    8.2607903   -1230.0027 
31040900    228.85445   -1238.4718    8.4603833   -1230.0114 
31041000    235.60427    -1238.734    8.7099132   -1230.0241 
31041100    229.06933   -1238.5125     8.468327   -1230.0442 
31041200     228.7967   -1238.5264    8.4582481   -1230.0682 
31041300     221.7275   -1238.2917    8.1969114   -1230.0948 
31041400    222.56401   -1238.3469    8.2278358   -1230.1191 
31041500    243.51615   -1239.1479    9.0024028   -1230.1455 
31041600    241.05234   -1239.0977    8.9113196   -1230.1864 
31041700    227.90989   -1238.6636    8.4254642   -1230.2381 
31041800    223.51744    -1238.554    8.2630824    -1230.291 
31041900    220.80628   -1238.5061    8.1628552   -1230.3432 
31042000    211.57264   -1238.2117    7.8215023   -1230.3902 
31042100    231.66295   -1238.9957    8.5642088   -1230.4315 
31042200    231.30699   -1239.0306    8.5510495   -1230.4795 
31042300    216.38092   -1238.5286    7.9992569   -1230.5293 
31042400    225.20989   -1238.8999    8.3256496   -1230.5743 
31042500      233.322   -1239.2479    8.6255413   -1230.6224 
31042600    222.33895   -1238.8948    8.2195157   -1230.6753 
31042700    221.91845   -1238.9296    8.2039704   -1230.7257 
31042800    232.62503   -1239.3768    8.5997755    -1230.777 
31042900    223.82697   -1239.1079    8.2745254   -1230.8334 
31043000    216.13227   -1238.8772    7.9900646   -1230.8871 
31043100    212.96021    -1238.807    7.8727985   -1230.9342 
31043200    218.49604   -1239.0512    8.0774493   -1230.9738 
31043300    228.65713   -1239.4644    8.4530888   -1231.0113 
31043400    227.24296   -1239.4529    8.4008091   -1231.0521 
31043500     217.2604   -1239.1252    8.0317698   -1231.0935 
31043600    208.83716   -1238.8485    7.7203759   -1231.1282 
31043700    209.77507   -1238.9073    7.7550491   -1231.1522 
31043800    216.82126   -1239.1824    8.0155354   -1231.1669 
31043900     220.8933   -1239.3426    8.1660722   -1231.1766 
31044000    204.37493   -1238.7375    7.5554143   -1231.1821 
31044100    202.83701   -1238.6734    7.4985602   -1231.1749 
31044200    222.07119   -1239.3629     8.209617   -1231.1533 
31044300    219.75712   -1239.2512    8.1240696   -1231.1271 
31044400    212.87608   -1238.9678    7.8696886   -1231.0982 
31044500    222.23296   -1239.2772    8.2155974   -1231.0616 
31044600    227.95493   -1239.4483    8.4271295   -1231.0212 
31044700    219.11227   -1239.0828    8.1002304   -1230.9826 
31044800    214.62295   -1238.8758    7.9342675   -1230.9416 
31044900    215.68589   -1238.8676    7.9735626    -1230.894 
31045000     226.7476   -1239.2217    8.3824964   -1230.8392 
31045100    229.17272   -1239.2553    8.4721492   -1230.7831 
31045200    211.78343   -1238.5603     7.829295    -1230.731 
31045300    212.61874   -1238.5342    7.8601749    -1230.674 
31045400    225.35144    -1238.937    8.3308823   -1230.6061 
31045500    215.49928   -1238.5036     7.966664   -1230.5369 
31045600    217.09455   -1238.4901    8.0256386   -1230.4645 
31045700    238.09469   -1239.1858      8.80198   -1230.3838 
31045800    248.55331   -1239.4956    9.1886184    -1230.307 
31045900    233.38087   -1238.8764    8.6277178   -1230.2487 
31046000    222.12477   -1238.4127    8.2115976   -1230.2011 
31046100    218.22633    -1238.221    8.0674787   -1230.1535 
31046200    223.58565   -1238.3674     8.265604   -1230.1018 
31046300    238.85561   -1238.8773      8.83011   -1230.0472 
31046400    220.03934   -1238.1351    8.1345027   -1230.0006 
31046500    226.76467   -1238.3385    8.3831275   -1229.9554 
31046600    260.89497   -1239.5531    9.6448699   -1229.9083 
31046700    245.07153    -1238.945    9.0599029   -1229.8851 
31046800    229.99439   -1238.3827    8.5025251   -1229.8801 
31046900    238.95784   -1238.7152    8.8338895   -1229.8813 
31047000    235.64418   -1238.6043    8.7113886   -1229.8929 
31047100    222.90413   -1238.1522    8.2404092   -1229.9118 
31047200     223.4879   -1238.1922    8.2619905   -1229.9302 
31047300     234.3738   -1238.6138    8.6644247   -1229.9493 
31047400    244.66243   -1239.0221    9.0447791   -1229.9774 
31047500    246.64946   -1239.1407    9.1182364   -1230.0224 
31047600    229.07876   -1238.5512    8.4686757   -1230.0826 
31047700    211.77212   -1237.9698    7.8288769   -1230.1409 
31047800    223.81142    -1238.466    8.2739505   -1230.1921 
31047900    224.09843   -1238.5287    8.2845606   -1230.2442 
31048000    217.32655   -1238.3285     8.034215   -1230.2942 
31048100    230.36972   -1238.8577    8.5164004   -1230.3413 
31048200    242.16551   -1239.3492    8.9524717   -1230.3967 
31048300    227.73382   -1238.8821    8.4189554   -1230.4632 
31048400    235.69204   -1239.2456    8.7131579   -1230.5325 
31048500     236.8559   -1239.3691    8.7561841   -1230.6129 
31048600     223.7498   -1238.9699    8.2716726   -1230.6982 
31048700    223.66971   -1239.0501    8.2687116   -1230.7814 
31048800    214.26233   -1238.7826     7.920936   -1230.8616 
31048900    201.36002   -1238.3731    7.4439582   -1230.9291 
31049000    213.43079    -1238.872    7.8901951   -1230.9818 
31049100    224.11302   -1239.3155    8.2851001   -1231.0304 
31049200    211.94784   -1238.9119    7.8353727   -1231.0765 
31049300    220.41849   -1239.2632    8.1485192   -1231.1147 
31049400    224.10475   -1239.4365    8.2847943   -1231.1517 
31049500    210.83172   -1238.9803    7.7941116   -1231.1862 
31049600    207.36965   -1238.8773    7.6661243   -1231.2112 
31049700    206.09787   -1238.8433    7.6191087   -1231.2242 
31049800    216.66488   -1239.2356    8.0097544   -1231.2258 
31049900    214.99604   -1239.1691    7.9480598    -1231.221 
31050000    209.78722   -1238.9649    7.7554981   -1231.2094 
31050100    213.30214   -1239.0733    7.8854392   -1231.1879 
31050200    209.02698    -1238.885    7.7273934   -1231.1576 
31050300    209.14582   -1238.8489    7.7317866   -1231.1171 
31050400    222.95473   -1239.3069      8.24228   -1231.0647 
31050500    216.82678   -1239.0233    8.0157395   -1231.0075 
31050600    209.60151   -1238.6963    7.7486328   -1230.9477 
31050700    222.82491   -1239.1143    8.2374806   -1230.8768 
31050800    222.62051   -1239.0312    8.2299244   -1230.8012 
31050900    222.62747   -1238.9554    8.2301815   -1230.7252 
31051000    225.48862   -1238.9834     8.335954   -1230.6475 
31051100    217.44006   -1238.6095    8.0384114   -1230.5711 
31051200    218.50809   -1238.5704    8.0778946   -1230.4925 
31051300    218.45416   -1238.4852     8.075901   -1230.4093 
31051400    207.38755   -1237.9912    7.6667861   -1230.3244 
31051500    222.40227   -1238.4527    8.2218564   -1230.2308 
31051600    231.19345   -1238.6762    8.5468523   -1230.1294 
31051700    224.89164   -1238.3488    8.3138844    -1230.035 
31051800    230.19609    -1238.454    8.5099813    -1229.944 
31051900    237.21052   -1238.6258    8.7692938   -1229.8565 
31052000    236.37261    -1238.517    8.7383176   -1229.7787 
31052100     238.2116    -1238.518     8.806302   -1229.7117 
31052200    245.35126   -1238.7253    9.0702439    -1229.655 
31052300    247.31256   -1238.7566    9.1427501   -1229.6139 
31052400    246.63619   -1238.7088    9.1177458    -1229.591 
31052500     241.8884   -1238.5281    8.9422276   -1229.5859 
31052600    232.72922   -1238.1977    8.6036271    -1229.594 
31052700    236.01797   -1238.3349     8.725207   -1229.6097 
31052800     236.1303   -1238.3642    8.7293599   -1229.6348 
31052900    226.13672    -1238.028     8.359913   -1229.6681 
31053000     217.8374   -1237.7551    8.0531004    -1229.702 
31053100    227.06105   -1238.1269     8.394084   -1229.7328 
31053200     234.6051    -1238.441    8.6729756   -1229.7681 
31053300    221.29037   -1237.9901    8.1807514   -1229.8093 
31053400    229.56941   -1238.3365    8.4868141   -1229.8497 
31053500    250.99949   -1239.1789      9.27905   -1229.8998 
31053600    241.69025   -1238.9065    8.9349023   -1229.9716 
31053700    230.49331   -1238.5746    8.5209691   -1230.0537 
31053800    230.98496   -1238.6799    8.5391447   -1230.1407 
31053900    225.08763   -1238.5522      8.32113   -1230.2311 
31054000    215.28074   -1238.2766    7.9585847    -1230.318 
31054100    212.42064   -1238.2473    7.8528515   -1230.3945 
31054200    225.62929   -1238.8059    8.3411543   -1230.4647 
31054300    227.43228   -1238.9447    8.4078077   -1230.5369 
31054400     227.7518   -1239.0293    8.4196199   -1230.6097 
31054500    237.96213   -1239.4842    8.7970794   -1230.6871 
31054600    233.68863   -1239.4132    8.6390953   -1230.7741 
31054700    229.81199   -1239.3602     8.495782   -1230.8644 
31054800    223.72523   -1239.2265    8.2707642   -1230.9557 
31054900    210.23202   -1238.8111    7.7719418   -1231.0391 
31055000     207.3436    -1238.773    7.6651616   -1231.1078 
31055100    217.64098    -1239.211     8.045839   -1231.1652 
31055200     214.1656   -1239.1343    7.9173597    -1231.217 
31055300    205.75406   -1238.8648    7.6063988   -1231.2584 
31055400    213.00234    -1239.162     7.874356   -1231.2876 
31055500    213.11037   -1239.1873    7.8783496   -1231.3089 
31055600    211.66233   -1239.1468    7.8248181    -1231.322 
31055700    219.10193   -1239.4269    8.0998482    -1231.327 
31055800    215.09362   -1239.2792    7.9516674   -1231.3276 
31055900    204.55452   -1238.8832    7.5620535   -1231.3211 
31056000    209.12019   -1239.0325     7.730839   -1231.3017 
31056100    211.41623   -1239.0854      7.81572   -1231.2697 
31056200    213.60545   -1239.1231    7.8966519   -1231.2265 
31056300    229.68882   -1239.6629    8.4912285   -1231.1717 
31056400    230.65016   -1239.6404    8.5267678   -1231.1137 
31056500     216.5589   -1239.0642    8.0058364   -1231.0584 
31056600    216.66227   -1239.0067    8.0096577   -1230.9971 
31056700    227.57567   -1239.3379    8.4131086   -1230.9248 
31056800    233.76923    -1239.489    8.6420746   -1230.8469 
31056900    221.86083   -1238.9735    8.2018403   -1230.7716 
31057000    217.60765   -1238.7396    8.0446071    -1230.695 
31057100    219.01679   -1238.7059    8.0967006   -1230.6092 
31057200    216.66124   -1238.5263    8.0096195   -1230.5166 
31057300    227.77073   -1238.8344    8.4203197   -1230.4141 
31057400    236.61347   -1239.0544    8.7472218   -1230.3072 
31057500    236.38742    -1238.945     8.738865   -1230.2061 
31057600    226.17603   -1238.4787    8.3613661   -1230.1173 
31057700    226.83809   -1238.4196    8.3858416   -1230.0337 
31057800    214.50413   -1237.8844    7.9298747   -1229.9546 
31057900    218.29616    -1237.945      8.07006    -1229.875 
31058000    240.03833   -1238.6633    8.8738335   -1229.7895 
31058100    236.07151   -1238.4421    8.7271864   -1229.7149 
31058200    233.41103   -1238.2845    8.6288325   -1229.6556 
31058300    245.53004   -1238.6835    9.0768531   -1229.6066 
31058400    232.57075   -1238.1727    8.5977688   -1229.5749 
31058500     224.0509   -1237.8362    8.2828035   -1229.5534 
31058600    232.66687   -1238.1355    8.6013222   -1229.5341 
31058700    233.68442   -1238.1604    8.6389395   -1229.5214 
31058800    219.60148   -1237.6337    8.1183155   -1229.5154 
31058900    238.46819   -1238.3246    8.8157877   -1229.5088 
31059000    249.04352   -1238.7194    9.2067408   -1229.5126 
31059100    234.27907   -1238.1936    8.6609228   -1229.5326 
31059200     237.3063   -1238.3319    8.7728346   -1229.5591 
31059300    235.12772   -1238.2848     8.692296   -1229.5925 
31059400     232.7112   -1238.2324    8.6029612   -1229.6294 
31059500    242.96625   -1238.6522    8.9820738   -1229.6701 
31059600     246.3653   -1238.8281    9.1077314   -1229.7204 
31059700    237.72901   -1238.5675    8.7884616   -1229.7791 
31059800    227.86781    -1238.259    8.4239089   -1229.8351 
31059900    240.96279   -1238.7947    8.9080093   -1229.8866 
31060000    239.51704    -1238.796     8.854562   -1229.9414 
31060100    228.80824   -1238.4528    8.4586748   -1229.9942 
31060200    227.87693   -1238.4636    8.4242459   -1230.0394 
31060300    225.57128   -1238.4174    8.3390097   -1230.0784 
31060400     218.4652   -1238.1864    8.0763092   -1230.1101 
31060500    225.84239   -1238.4825     8.349032   -1230.1335 
31060600    228.59284   -1238.6058    8.4507119   -1230.1551 
31060700    217.13166   -1238.2022    8.0270103   -1230.1752 
31060800    231.72195   -1238.7563    8.5663902   -1230.1899 
31060900    237.47233   -1238.9881    8.7789724   -1230.2091 
31061000    227.87281   -1238.6591    8.4240937    -1230.235 
31061100    228.63882   -1238.7146    8.4524117   -1230.2622 
31061200    238.59174   -1239.1127    8.8203553   -1230.2924 
31061300    246.58998   -1239.4505    9.1160373   -1230.3344 
31061400    222.24014    -1238.604    8.2158627   -1230.3882 
31061500    223.90862   -1238.7148    8.2775436   -1230.4372 
31061600    237.29054   -1239.2619    8.7722521   -1230.4897 
31061700    209.21393   -1238.2795    7.7343047   -1230.5452 
31061800    217.31153   -1238.6225      8.03366   -1230.5888 
31061900    232.54259   -1239.2281     8.596728   -1230.6314 
31062000    211.28148   -1238.4872    7.8107386   -1230.6765 
31062100    205.95633   -1238.3243    7.6138763   -1230.7104 
31062200    230.38656   -1239.2525    8.5170227   -1230.7354 
31062300    241.58504   -1239.6982    8.9310127   -1230.7672 
31062400    233.58179   -1239.4474    8.6351454   -1230.8123 
31062500    227.12306   -1239.2608    8.3963766   -1230.8644 
31062600    230.52776   -1239.4442    8.5222429    -1230.922 
31062700    221.36871   -1239.1691    8.1836475   -1230.9855 
31062800    208.02128   -1238.7367    7.6902143   -1231.0465 
31062900    196.81646   -1238.3724    7.2759898   -1231.0964 
31063000    194.51562   -1238.3205    7.1909316   -1231.1296 
31063100    213.66043   -1239.0463    7.8986845   -1231.1476 
31063200    217.01654   -1239.1824    8.0227545   -1231.1596 
31063300    209.34794   -1238.9055    7.7392587   -1231.1663 
31063400    230.36772   -1239.6809    8.5163262   -1231.1646 
31063500    235.57771   -1239.8751    8.7089314   -1231.1661 
31063600    205.85664   -1238.7842    7.6101908    -1231.174 
31063700    209.23342   -1238.9067    7.7350251   -1231.1716 
31063800    230.69228   -1239.6856    8.5283247   -1231.1573 
31063900    227.52958   -1239.5533    8.4114047   -1231.1419 
31064000    210.28743   -1238.8997    7.7739903   -1231.1257 
31064100    202.53481   -1238.5848     7.487388   -1231.0974 
31064200    210.37081    -1238.825    7.7770726   -1231.0479 
31064300    222.04087   -1239.1844    8.2084962   -1230.9759 
31064400    239.54702   -1239.7412    8.8556704   -1230.8856 
31064500    233.80818   -1239.4357    8.6435147   -1230.7922 
31064600    216.52112    -1238.707    8.0044397   -1230.7026 
31064700    210.29787   -1238.3822    7.7743762   -1230.6078 
31064800    227.14605   -1238.8944    8.3972265   -1230.4972 
31064900    238.09221   -1239.1791    8.8018884   -1230.3772 
31065000    225.37041   -1238.5988    8.3315838   -1230.2672 
31065100    223.29588   -1238.4202    8.2548916   -1230.1653 
31065200    231.88414   -1238.6365     8.572386   -1230.0641 
31065300    236.18029      -1238.7    8.7312078   -1229.9688 
31065400    233.20898   -1238.5075    8.6213632   -1229.8861 
31065500    233.02876   -1238.4289    8.6147008   -1229.8142 
31065600    237.52921   -1238.5328    8.7810752   -1229.7518 
31065700    244.46705   -1238.7376    9.0375562   -1229.7001 
31065800    231.60503   -1238.2265    8.5620676   -1229.6645 
31065900    236.31103   -1238.3735    8.7360411   -1229.6375 
31066000    239.83601   -1238.4854    8.8663539   -1229.6191 
31066100    237.01428   -1238.3744    8.7620392   -1229.6123 
31066200    234.31115   -1238.2776    8.6621085   -1229.6155 
31066300    233.53449   -1238.2599    8.6333968   -1229.6265 
31066400    231.85031   -1238.2159    8.5711352   -1229.6448 
31066500    222.68455   -1237.9005     8.232292   -1229.6682 
31066600    226.53234   -1238.0664    8.3745384   -1229.6919 
31066700    239.72397   -1238.5827    8.8622118   -1229.7205 
31066800    234.68978   -1238.4386    8.6761062   -1229.7625 
31066900    228.72705   -1238.2696    8.4556734   -1229.8139 
31067000    236.73381   -1238.6267    8.7516703    -1229.875 
31067100    226.93682   -1238.3389    8.3894914   -1229.9494 
31067200    227.43243   -1238.4383    8.4078135   -1230.0304 
31067300    240.89967   -1239.0315    8.9056759   -1230.1258 
31067400     228.9752   -1238.7059    8.4648472   -1230.2411 
31067500    210.11337   -1238.1242    7.7675555   -1230.3566 
31067600    222.76173   -1238.7017    8.2351451   -1230.4666 
31067700    242.36675   -1239.5497    8.9599112   -1230.5897 
31067800    225.74685   -1239.0702       8.3455   -1230.7247 
31067900    215.81467    -1238.826    7.9783235   -1230.8477 
31068000    221.13011   -1239.1341    8.1748267   -1230.9593 
31068100    216.50645   -1239.0623    8.0038974   -1231.0584 
31068200    222.40286   -1239.3646    8.2218783   -1231.1427 
31068300    215.33966   -1239.1761     7.960763   -1231.2153 
31068400    202.78919    -1238.765    7.4967922   -1231.2682 
31068500    208.31762   -1239.0016    7.7011693   -1231.3004 
31068600    215.92431   -1239.3009    7.9823766   -1231.3185 
31068700    220.34262   -1239.4745    8.1457143   -1231.3287 
31068800    210.31777   -1239.1088    7.7751118   -1231.3337 
31068900    210.26679   -1239.1025    7.7732271   -1231.3293 
31069000    228.71816   -1239.7724    8.4553449    -1231.317 
31069100    229.60419   -1239.7956       8.4881   -1231.3075 
31069200    214.82026   -1239.2435    7.9415618    -1231.302 
31069300     216.9775    -1239.313    8.0213112   -1231.2917 
31069400    227.05482   -1239.6713    8.3938538   -1231.2774 
31069500    210.76529   -1239.0561    7.7916559   -1231.2644 
31069600     205.0244   -1238.8244    7.5794241    -1231.245 
31069700    212.35916   -1239.0649    7.8505786   -1231.2143 
31069800    215.90513   -1239.1579    7.9816677   -1231.1762 
31069900    214.21259   -1239.0529    7.9190969   -1231.1338 
31070000    223.47413   -1239.3481    8.2614814   -1231.0866 
31070100     233.3645   -1239.6656    8.6271126   -1231.0385 
31070200    220.93893   -1239.1654    8.1677591   -1230.9976 
31070300    211.12129   -1238.7633    7.8048168   -1230.9585 
31070400    219.16372   -1239.0148    8.1021325   -1230.9127 
31070500     223.3111    -1239.118    8.2554545   -1230.8625 
31070600    210.39818   -1238.5911    7.7780843    -1230.813 
31070700    220.93416   -1238.9252    8.1675828   -1230.7577 
31070800      230.968    -1239.236    8.5385179   -1230.6975 
31070900    220.06559   -1238.7783    8.1354731   -1230.6428 
31071000    219.24757   -1238.6945    8.1052321   -1230.5892 
31071100    227.38621   -1238.9389    8.4061047   -1230.5328 
31071200    217.44423   -1238.5173    8.0385654   -1230.4788 
31071300    206.80183   -1238.0699    7.6451332   -1230.4248 
31071400    213.71548   -1238.2629    7.9007198   -1230.3622 
31071500    222.81719   -1238.5288    8.2371954   -1230.2916 
31071600    224.11156   -1238.5066    8.2850461   -1230.2215 
31071700    233.09968   -1238.7717    8.6173224   -1230.1544 
31071800    242.78405    -1239.071    8.9753382   -1230.0957 
31071900    237.05359   -1238.8171    8.7634921   -1230.0536 
31072000     236.1957   -1238.7576    8.7317774   -1230.0259 
31072100     229.5144   -1238.4937    8.4847806   -1230.0089 
31072200    235.85917   -1238.7178    8.7193365   -1229.9984 
31072300    239.61757   -1238.8556    8.8582787   -1229.9973 
31072400    210.92054   -1237.8018    7.7973953   -1230.0044 
31072500     205.7639   -1237.6096    7.6067624   -1230.0029 
31072600    232.66271   -1238.5922    8.6011683    -1229.991 
31072700    250.15198   -1239.2334    9.2477187   -1229.9857 
31072800    233.16353    -1238.617     8.619683   -1229.9973 
31072900    229.63201   -1238.5024    8.4891283   -1230.0133 
31073000    240.33409   -1238.9164    8.8847672   -1230.0316 
31073100     232.0679   -1238.6357    8.5791793   -1230.0566 
31073200     230.4371   -1238.6012    8.5188912   -1230.0823 
31073300    236.27904   -1238.8437    8.7348584   -1230.1089 
31073400    238.34957   -1238.9514    8.8114028     -1230.14 
31073500    234.23028   -1238.8354    8.6591191   -1230.1763 
31073600    227.68902    -1238.631    8.4172991   -1230.2137 
31073700    230.82899   -1238.7831    8.5333788   -1230.2498 
31073800    224.03942   -1238.5682    8.2823792   -1230.2859 
31073900    211.32844   -1238.1289    7.8124748   -1230.3164 
31074000    218.68074   -1238.4206    8.0842776   -1230.3363 
31074100    240.83268   -1239.2567    8.9031993   -1230.3535 
31074200    230.85778   -1238.9151    8.5344431   -1230.3806 
31074300    221.36815   -1238.5929    8.1836266   -1230.4093 
31074400    247.03854   -1239.5718      9.13262   -1230.4392 
31074500    236.47877   -1239.2271    8.7422421   -1230.4849 
31074600    210.60007   -1238.3186    7.7855479   -1230.5331 
31074700    227.56516   -1238.9853    8.4127202   -1230.5726 
31074800    246.04827   -1239.7151    9.0960113   -1230.6191 
31074900     224.2317   -1238.9681    8.2894876   -1230.6786 
31075000    210.03809   -1238.4979    7.7647725   -1230.7332 
31075100    223.05376   -1239.0257    8.2459409   -1230.7798 
31075200    230.90627   -1239.3647    8.5362357   -1230.8284 
31075300    214.05282   -1238.7929    7.9131904   -1230.8797 
31075400    208.94531   -1238.6465     7.724374   -1230.9221 
31075500     225.7338   -1239.3029    8.3450178   -1230.9579 
31075600    217.62429   -1239.0403    8.0452223   -1230.9951 
31075700    201.51156   -1238.4757    7.4495604   -1231.0261 
31075800    211.42996   -1238.8603    7.8162278   -1231.0441 
31075900    218.83454   -1239.1447    8.0899632   -1231.0548 
31076000    208.93591   -1238.7848    7.7240266   -1231.0608 
31076100    215.91427   -1239.0394    7.9820055   -1231.0573 
31076200    215.40433   -1239.0091    7.9631538   -1231.0459 
31076300    217.79539   -1239.0776    8.0515476   -1231.0261 
31076400    223.96016   -1239.2759    8.2794491   -1230.9965 
31076500    220.23662    -1239.101    8.1417957   -1230.9592 
31076600    213.72507   -1238.8123    7.9010741   -1230.9112 
31076700    212.20285     -1238.69    7.8448001   -1230.8452 
31076800    202.74533   -1238.2517    7.4951708   -1230.7566 
31076900    203.23344   -1238.1536    7.5132152   -1230.6404 
31077000    235.23009   -1239.1779    8.6960803   -1230.4818 
31077100    243.20303   -1239.2907    8.9908273   -1230.2999 
31077200    229.79887   -1238.6292    8.4952969    -1230.134 
31077300    245.35057   -1239.0511    9.0702183   -1229.9809 
31077400    254.49898   -1239.2518    9.4084205   -1229.8434 
31077500    229.50543   -1238.2275     8.484449    -1229.743 
31077600    222.38846   -1237.8852    8.2213459   -1229.6639 
31077700    234.34348   -1238.2535     8.663304   -1229.5902 
31077800    239.47617   -1238.3797    8.8530513   -1229.5267 
31077900    226.77509   -1237.8625    8.3835126    -1229.479 
31078000    221.50165   -1237.6276    8.1885618    -1229.439 
31078100    238.49955   -1238.2167     8.816947   -1229.3997 
31078200    230.52594   -1237.8921    8.5221756   -1229.3699 
31078300    224.60665   -1237.6508    8.3033488   -1229.3474 
31078400    249.99427   -1238.5691    9.2418886   -1229.3272 
31078500    241.18391   -1238.2402    8.9161834    -1229.324 
31078600    241.17194   -1238.2507    8.9157411    -1229.335 
31078700    247.67324   -1238.5166    9.1560838   -1229.3606 
31078800    231.03219   -1237.9426    8.5408907   -1229.4018 
31078900    231.41972   -1238.0034    8.5552172   -1229.4482 
31079000    239.90417   -1238.3717    8.8688735   -1229.5028 
31079100    238.33914   -1238.3823    8.8110169   -1229.5713 
31079200    227.91769   -1238.0748    8.4257525   -1229.6491 
31079300    237.09798   -1238.4973    8.7651334   -1229.7321 
31079400      243.999   -1238.8513    9.0202529    -1229.831 
31079500    231.19972   -1238.4894     8.547084   -1229.9423 
31079600    236.23613     -1238.79    8.7332719   -1230.0567 
31079700    239.65648   -1239.0406     8.859717   -1230.1809 
31079800     225.4957   -1238.6418    8.3362157   -1230.3056 
31079900    210.49409   -1238.1947    7.7816302   -1230.4131 
31080000    220.05659   -1238.6343    8.1351405   -1230.4991 
31080100    237.62245   -1239.3636    8.7845221    -1230.579 
31080200    212.15324   -1238.4951    7.8429661   -1230.6521 
31080300    208.90247   -1238.4248    7.7227904    -1230.702 
31080400    228.11967   -1239.1705    8.4332194   -1230.7373 
31080500    228.17014   -1239.2048    8.4350854   -1230.7698 
31080600     216.8893   -1238.8158    8.0180507   -1230.7978 
31080700    223.90609   -1239.0945    8.2774502   -1230.8171 
31080800    232.57508   -1239.4324     8.597929   -1230.8345 
31080900    215.04298   -1238.8026    7.9497953   -1230.8528 
31081000    219.47699    -1238.977    8.1137135   -1230.8633 
31081100     232.9537   -1239.4826    8.6119258   -1230.8706 
31081200    209.60604   -1238.6292    7.7488003   -1230.8804 
31081300    199.37827   -1238.2505    7.3706961   -1230.8798 
31081400    215.55806   -1238.8331    7.9688369   -1230.8643 
31081500    217.94568   -1238.8987    8.0571032   -1230.8416 
31081600    230.65145   -1239.3425    8.5268155   -1230.8156 
31081700    222.20367   -1239.0076    8.2145145   -1230.7931 
31081800    209.17801   -1238.5037    7.7329765   -1230.7707 
31081900    219.08837   -1238.8391    8.0993467   -1230.7398 
31082000    221.50527   -1238.8921    8.1886957   -1230.7034 
31082100    215.19308   -1238.6206    7.9553443   -1230.6653 
31082200    228.87643   -1239.0823    8.4611956   -1230.6211 
31082300    225.47775   -1238.9125    8.3355519    -1230.577 
31082400    209.91634    -1238.295    7.7602714   -1230.5347 
31082500    220.50421   -1238.6356     8.151688   -1230.4839 
31082600    236.65971   -1239.1738    8.7489311   -1230.4249 
31082700    227.19517   -1238.7701    8.3990424    -1230.371 
31082800    228.38856   -1238.7631      8.44316     -1230.32 
31082900    229.84834   -1238.7659    8.4971259   -1230.2688 
31083000    228.80965   -1238.6781     8.458727   -1230.2193 
31083100    232.36913   -1238.7604    8.5903151     -1230.17 
31083200    214.25968    -1238.044     7.920838   -1230.1232 
31083300    215.13513    -1238.022     7.953202   -1230.0688 
31083400     226.0284   -1238.3556    8.3559085   -1229.9997 
31083500    228.35747   -1238.3631    8.4420106   -1229.9211 
31083600    232.57887   -1238.4327    8.5980692   -1229.8346 
31083700    236.20853   -1238.4741    8.7322518   -1229.7418 
31083800    248.15774   -1238.8169    9.1739949   -1229.6429 
31083900    251.21748   -1238.8333    9.2871085   -1229.5462 
31084000    250.19706   -1238.7078    9.2493855   -1229.4584 
31084100    240.97973   -1238.2889    8.9086355   -1229.3803 
31084200    222.49157   -1237.5334    8.2251576   -1229.3082 
31084300     232.7556   -1237.8304    8.6046025   -1229.2258 
31084400    238.55605   -1237.9495    8.8190358   -1229.1305 
31084500    235.40152   -1237.7329    8.7024178   -1229.0305 
31084600     251.7403   -1238.2288    9.3064364   -1228.9224 
31084700    237.61478   -1237.6013    8.7842385    -1228.817 
31084800    227.38316   -1237.1244    8.4059921   -1228.7185 
31084900    250.41264   -1237.8663    9.2573549   -1228.6089 
31085000    268.30777   -1238.4193    9.9189094   -1228.5004 
31085100     272.1843    -1238.479    10.062219   -1228.4168 
31085200    248.39778    -1237.553    9.1828687   -1228.3702 
31085300    249.46335   -1237.5674    9.2222613   -1228.3451 
31085400     262.5943   -1238.0474    9.7076914   -1228.3397 
31085500    245.90243   -1237.4551    9.0906196   -1228.3645 
31085600    246.73427   -1237.5321    9.1213714   -1228.4107 
31085700    273.15772   -1238.5872    10.098204    -1228.489 
31085800    259.99827   -1238.2333    9.6117206   -1228.6216 
31085900    233.46511   -1237.4117    8.6308318   -1228.7809 
31086000    238.01445   -1237.7515    8.7990139   -1228.9525 
31086100    240.14205   -1238.0143    8.8776677   -1229.1367 
31086200    239.64501   -1238.1826    8.8592928   -1229.3233 
31086300    230.78568   -1238.0264    8.5317777   -1229.4946 
31086400    233.06598    -1238.258    8.6160767   -1229.6419 
31086500    232.59815    -1238.366     8.598782   -1229.7672 
31086600    254.04193   -1239.2707     9.391524   -1229.8792 
31086700    255.04007   -1239.4253    9.4284236   -1229.9969 
31086800    227.93186   -1238.5321    8.4262765   -1230.1058 
31086900    221.79432   -1238.3921    8.1993814   -1230.1927 
31087000    226.01093   -1238.6208    8.3552627   -1230.2655 
31087100    226.41364   -1238.7005    8.3701502   -1230.3303 
31087200     225.3005   -1238.7188    8.3289995   -1230.3898 
31087300    217.42743    -1238.481    8.0379445   -1230.4431 
31087400    213.43457    -1238.377     7.890335   -1230.4867 
31087500     217.8199   -1238.5736    8.0524533   -1230.5211 
31087600    224.38856   -1238.8458    8.2952865   -1230.5505 
31087700    231.66238   -1239.1447    8.5641879   -1230.5805 
31087800    221.33105   -1238.7962    8.1822551   -1230.6139 
31087900    218.71932     -1238.73    8.0857038   -1230.6443 
31088000    225.96083   -1239.0252    8.3534106   -1230.6718 
31088100    232.60279   -1239.3006    8.5989533   -1230.7017 
31088200    225.73839   -1239.0828    8.3451874   -1230.7376 
31088300      211.587   -1238.5945     7.822033   -1230.7725 
31088400    223.59688   -1239.0667    8.2660193   -1230.8007 
31088500    225.37078   -1239.1614    8.3315974   -1230.8298 
31088600    209.87312   -1238.6167    7.7586737    -1230.858 
31088700    211.48531   -1238.6956    7.8182739   -1230.8773 
31088800    220.59475   -1239.0441    8.1550353   -1230.8891 
31088900    234.57387   -1239.5713    8.6718209   -1230.8995 
31089000    242.12512     -1239.87    8.9509785    -1230.919 
31089100    218.54837   -1239.0299    8.0793839   -1230.9505 
31089200    208.52879   -1238.6869     7.708976   -1230.9779 
31089300    227.07178    -1239.393    8.3944806   -1230.9985 
31089400    230.52635   -1239.5451    8.5221907   -1231.0229 
31089500    210.46098   -1238.8318    7.7804059   -1231.0514 
31089600    195.92157   -1238.3131    7.2429071   -1231.0702 
31089700    207.73556   -1238.7525    7.6796515   -1231.0728 
31089800    207.94314     -1238.75    7.6873255   -1231.0627 
31089900    215.07394   -1238.9909    7.9509397   -1231.0399 
31090000    221.68688   -1239.2014    8.1954095    -1231.006 
31090100    213.38144   -1238.8536    7.8883709   -1230.9652 
31090200    211.85854   -1238.7455    7.8320715   -1230.9134 
31090300    231.39037   -1239.3984    8.5541322   -1230.8443 
31090400    225.84294   -1239.1167    8.3490525   -1230.7677 
31090500    216.40197   -1238.6886    8.0000349   -1230.6886 
31090600    228.33228   -1239.0378    8.4410794   -1230.5967 
31090700    228.92346    -1238.959    8.4629344   -1230.4961 
31090800    226.77882   -1238.7779    8.3836503   -1230.3942 
31090900    231.84996   -1238.8599    8.5711226   -1230.2888 
31091000    230.19965    -1238.695     8.510113   -1230.1849 
31091100    222.19326   -1238.2995    8.2141296   -1230.0854 
31091200     222.5234   -1238.2139    8.2263344   -1229.9876 
31091300     243.1982   -1238.8762    8.9906488   -1229.8856 
31091400    242.18627   -1238.7471    8.9532393   -1229.7938 
31091500    233.10917   -1238.3388    8.6176734   -1229.7211 
31091600    242.17112   -1238.6115    8.9526793   -1229.6588 
31091700    247.26604   -1238.7511    9.1410301   -1229.6101 
31091800     242.9638   -1238.5621    8.9819831   -1229.5801 
31091900    238.74489   -1238.3921    8.8260169   -1229.5661 
31092000    235.47383   -1238.2687    8.7050909   -1229.5636 
31092100    236.77004   -1238.3231    8.7530098   -1229.5701 
31092200    235.58596   -1238.2951    8.7092363   -1229.5858 
31092300    236.56907   -1238.3565    8.7455805   -1229.6109 
31092400    225.08503   -1237.9655    8.3210337   -1229.6445 
31092500    216.34407   -1237.6758    7.9978944   -1229.6779 
31092600     228.4116   -1238.1532    8.4440115   -1229.7091 
31092700    224.50022   -1238.0439    8.2994142   -1229.7445 
31092800    238.81939   -1238.6138     8.828771    -1229.785 
31092900    254.00225    -1239.236    9.3900571   -1229.8459 
31093000    237.90722   -1238.7318    8.7950495   -1229.9368 
31093100    229.13131   -1238.5156    8.4706182    -1230.045 
31093200    232.65712   -1238.7745    8.6009617   -1230.1735 
31093300    221.48254   -1238.5083    8.1878555   -1230.3205 
31093400    228.65332   -1238.9312    8.4529477   -1230.4782 
31093500    233.14463   -1239.2734    8.6189842   -1230.6545 
31093600    219.91682   -1238.9624    8.1299735   -1230.8324 
31093700     205.1101   -1238.5664    7.5825925   -1230.9838 
31093800    218.35965    -1239.178    8.0724073   -1231.1056 
31093900    220.13883   -1239.3466    8.1381806   -1231.2084 
31094000    209.65202   -1239.0355    7.7505001    -1231.285 
31094100     210.1851   -1239.1055    7.7702073   -1231.3353 
31094200    211.87884   -1239.1992    7.8328221   -1231.3664 
31094300    209.09863   -1239.1127    7.7300422   -1231.3827 
31094400    216.76288   -1239.4004    8.0133773    -1231.387 
31094500    221.59061   -1239.5773    8.1918508   -1231.3854 
31094600    224.52868   -1239.6825    8.3004665   -1231.3821 
31094700    220.80792   -1239.5416    8.1629157   -1231.3787 
31094800    211.68709   -1239.1986    7.8257332   -1231.3729 
31094900    207.00681   -1239.0121     7.652711   -1231.3594 
31095000    216.66836   -1239.3455     8.009883   -1231.3356 
31095100    216.06484   -1239.2933    7.9875718   -1231.3058 
31095200     201.7615   -1238.7305       7.4588   -1231.2717 
31095300    221.87162    -1239.427     8.202239   -1231.2248 
31095400    226.72497    -1239.553    8.3816596   -1231.1713 
31095500    204.00244   -1238.6629     7.541644   -1231.1213 
31095600    205.85799   -1238.6726    7.6102408   -1231.0623 
31095700     223.5326   -1239.2517    8.2636429    -1230.988 
31095800    228.14727   -1239.3426    8.4342398   -1230.9083 
31095900    218.83006   -1238.9227    8.0897973   -1230.8329 
31096000    218.24604   -1238.8252    8.0682074    -1230.757 
31096100    224.12074    -1238.963    8.2853855   -1230.6777 
31096200    240.07507   -1239.4718    8.8751915   -1230.5966 
31096300     234.9187   -1239.2102     8.684569   -1230.5256 
31096400    220.73713   -1238.6279    8.1602989   -1230.4676 
31096500    219.23079   -1238.5155     8.104612   -1230.4109 
31096600    214.40981   -1238.2789    7.9263879   -1230.3525 
31096700    218.96007   -1238.3835    8.0946037   -1230.2889 
31096800    220.83015   -1238.3855    8.1637377   -1230.2218 
31096900    229.94332   -1238.6534    8.5006369   -1230.1528 
31097000    235.74605   -1238.8021    8.7151545    -1230.087 
31097100    237.36961   -1238.8059    8.7751751   -1230.0307 
31097200     236.7407   -1238.7376    8.7519252   -1229.9856 
31097300    236.18444   -1238.6827    8.7313611   -1229.9513 
31097400    236.66405   -1238.6759    8.7490916   -1229.9268 
31097500    235.93977   -1238.6342    8.7223161   -1229.9119 
31097600    234.72738   -1238.5834     8.677496   -1229.9059 
31097700     234.0881    -1238.562     8.653863   -1229.9081 
31097800    220.80221   -1238.0792    8.1627047   -1229.9165 
31097900    221.23123   -1238.1016    8.1785648    -1229.923 
31098000    244.01924   -1238.9507    9.0210011   -1229.9297 
31098100    235.52808   -1238.6575    8.7070964   -1229.9504 
31098200    221.87708   -1238.1823    8.2024411   -1229.9799 
31098300    233.09292     -1238.63    8.6170727   -1230.0129 
31098400    235.45956    -1238.763    8.7045635   -1230.0584 
31098500    224.02437   -1238.4011    8.2818228   -1230.1192 
31098600    219.72859   -1238.3123    8.1230149   -1230.1893 
31098700    243.13957   -1239.2677    8.9884811   -1230.2792 
31098800    229.26127   -1238.8834    8.4754227    -1230.408 
31098900    211.22024   -1238.3616    7.8084745   -1230.5531 
31099000    223.36818   -1238.9748    8.2575644   -1230.7172 
31099100    214.37653   -1238.8228    7.9251576   -1230.8977 
31099200    220.17896   -1239.2136     8.139664    -1231.074 
31099300    225.97341   -1239.6039    8.3538758     -1231.25 
31099400    195.45833   -1238.6245    7.2257821   -1231.3988 
31099500    195.61886   -1238.7313    7.2317165   -1231.4996 
31099600    210.60684   -1239.3598    7.7857983    -1231.574 
31099700    209.56625   -1239.3759    7.7473294   -1231.6286 
31099800    219.13836   -1239.7684    8.1011949   -1231.6672 
31099900    215.21098   -1239.6527    7.9560061   -1231.6967 
31100000    217.85134   -1239.7701    8.0536157   -1231.7165 
31100100    217.28588   -1239.7627    8.0327115     -1231.73 
31100200    201.34398   -1239.1792    7.4433652   -1231.7358 
31100300    204.12229   -1239.2734    7.5460749   -1231.7274 
31100400    207.53725   -1239.3781    7.6723205   -1231.7058 
31100500    205.24735   -1239.2614    7.5876666   -1231.6737 
31100600    217.99331   -1239.6888     8.058864   -1231.6299 
31100700    217.01524   -1239.6033    8.0227067   -1231.5806 
31100800    219.00895   -1239.6243    8.0964109   -1231.5279 
31100900    213.51631   -1239.3655    7.8933568   -1231.4721 
31101000    205.86947   -1239.0226    7.6106653   -1231.4119 
31101100    201.89366   -1238.8061    7.4636859   -1231.3424 
31101200    207.18845   -1238.9198     7.659426   -1231.2603 
31101300    220.77702   -1239.3268    8.1617734   -1231.1651 
31101400     212.2981   -1238.9172    7.8483213   -1231.0688 
31101500    219.47724   -1239.0864    8.1137226   -1230.9726 
31101600    220.50045   -1239.0281    8.1515491   -1230.8766 
31101700     221.2102   -1238.9644    8.1777873   -1230.7866 
31101800    214.11728   -1238.6192    7.9155736   -1230.7036 
31101900     225.7943   -1238.9714    8.3472542   -1230.6241 
31102000    237.58489   -1239.3328    8.7831337   -1230.5497 
31102100    221.35784   -1238.6758    8.1832455   -1230.4926 
31102200    235.42872   -1239.1469    8.7034236   -1230.4434 
31102300    246.87951   -1239.5316    9.1267407   -1230.4049 
31102400    209.98489   -1238.1477    7.7628058   -1230.3849 
31102500    201.09444   -1237.7961    7.4341399    -1230.362 
31102600    230.26975   -1238.8391    8.5127044   -1230.3264 
31102700    229.16206   -1238.7653     8.471755   -1230.2935 
31102800    219.15109   -1238.3691    8.1016654   -1230.2674 
31102900     234.2517    -1238.901    8.6599109   -1230.2411 
31103000     238.3817   -1239.0343    8.8125905   -1230.2217 
31103100    231.79676   -1238.7826    8.5691556   -1230.2134 
31103200    239.52044    -1239.067    8.8546877   -1230.2123 
31103300    244.38293   -1239.2572    9.0344462   -1230.2227 
31103400     232.0154   -1238.8238    8.5772383   -1230.2466 
31103500    225.21609   -1238.6007    8.3258788   -1230.2749 
31103600    219.41525   -1238.4139    8.1114312   -1230.3024 
31103700     218.0729   -1238.3875    8.0618066   -1230.3257 
31103800     219.9525   -1238.4759    8.1312923   -1230.3446 
31103900    212.00156   -1238.1968    7.8373588   -1230.3594 
31104000    204.83019   -1237.9374    7.5722448   -1230.3652 
31104100    222.63412   -1238.5893    8.2304274   -1230.3588 
31104200    247.74723   -1239.5096     9.158819   -1230.3508 
31104300    235.91566   -1239.0795    8.7214248    -1230.358 
31104400    222.78558   -1238.6104    8.2360267   -1230.3744 
31104500    232.29296   -1238.9802    8.5874995   -1230.3927 
31104600    226.79179   -1238.8027    8.3841301   -1230.4186 
31104700    214.98668   -1238.3957     7.947714    -1230.448 
31104800    225.60827   -1238.8174    8.3403773    -1230.477 
31104900    232.27998   -1239.1009    8.5870195   -1230.5139 
31105000    232.52565   -1239.1624    8.5961016   -1230.5663 
31105100    222.08646   -1238.8462    8.2101814    -1230.636 
31105200    215.05869   -1238.6682    7.9503761   -1230.7178 
31105300    214.30845    -1238.733    7.9226409   -1230.8103 
31105400    208.78452   -1238.6301    7.7184301   -1230.9116 
31105500    214.43652   -1238.9452    7.9273752   -1231.0179 
31105600    224.29774   -1239.4277    8.2919288   -1231.1357 
31105700    213.10216   -1239.1404    7.8780462   -1231.2624 
31105800    200.43767   -1238.7875    7.4098604   -1231.3776 
31105900    212.48366   -1239.3364    7.8551814   -1231.4812 
31106000     208.8906   -1239.3003    7.7223516    -1231.578 
31106100    211.93865   -1239.4967    7.8350333   -1231.6616 
31106200    218.06263   -1239.7991    8.0614267   -1231.7376 
31106300    213.20108   -1239.6879    7.8817032   -1231.8062 
31106400    219.04253   -1239.9632    8.0976521   -1231.8655 
31106500    221.30899   -1240.1028    8.1814396   -1231.9213 
31106600    197.50488   -1239.2706    7.3014395   -1231.9691 
31106700    192.34155   -1239.1066    7.1105598    -1231.996 
31106800    214.06282   -1239.9179    7.9135602   -1232.0044 
31106900    212.20502   -1239.8493    7.8448805   -1232.0044 
31107000    189.85948   -1239.0139    7.0188015   -1231.9951 
31107100    199.46999   -1239.3397    7.3740866   -1231.9657 
31107200    212.94979   -1239.7881    7.8724134   -1231.9156 
31107300    208.10458   -1239.5472    7.6932936   -1231.8539 
31107400    202.76454   -1239.2768    7.4958808   -1231.7809 
31107500     206.9422    -1239.342    7.6503224   -1231.6917 
31107600    215.62634   -1239.5569    7.9713611   -1231.5855 
31107700    213.81517   -1239.3748    7.9044052   -1231.4704 
31107800     214.5977   -1239.2853    7.9333339    -1231.352 
31107900     218.2948   -1239.3013    8.0700098   -1231.2313 
31108000    211.03247    -1238.918    7.8015331   -1231.1165 
31108100    207.24482   -1238.6716    7.6615096   -1231.0101 
31108200    223.43038   -1239.1658    8.2598642    -1230.906 
31108300    223.33248   -1239.0696    8.2562449   -1230.8133 
31108400    217.08806   -1238.7644    8.0253985    -1230.739 
31108500    218.65209   -1238.7585    8.0832183   -1230.6752 
31108600     215.3665   -1238.5816    7.9617554   -1230.6198 
31108700    215.53754   -1238.5375    7.9680783   -1230.5694 
31108800    222.51791   -1238.7473    8.2261313   -1230.5212 
31108900    221.77639   -1238.6763    8.1987187   -1230.4776 
31109000    221.32123     -1238.62    8.1818922   -1230.4382 
31109100    243.70498   -1239.4103    9.0093834    -1230.401 
31109200    246.80913   -1239.5023     9.124139   -1230.3782 
31109300    221.70484   -1238.5689    8.1960734   -1230.3728 
31109400     219.1569   -1238.4696    8.1018803   -1230.3677 
31109500    241.14586   -1239.2752    8.9147768   -1230.3604 
31109600    237.86285   -1239.1575    8.7934094   -1230.3641 
31109700    223.60926   -1238.6432    8.2664771   -1230.3767 
31109800    229.58502   -1238.8775    8.4873913   -1230.3901 
31109900    225.23825   -1238.7333     8.326698   -1230.4066 
31110000    221.88252   -1238.6264    8.2026421   -1230.4237 
31110100    223.13636   -1238.6885    8.2489944   -1230.4395 
31110200    223.24222   -1238.7077     8.252908   -1230.4548 
31110300    211.74283   -1238.2963    7.8277941   -1230.4685 
31110400    215.62034   -1238.4456    7.9711394   -1230.4744 
31110500    228.11872   -1238.9081    8.4331843   -1230.4749 
31110600     224.8578   -1238.7896    8.3126333    -1230.477 
31110700    225.04922   -1238.7995      8.31971   -1230.4798 
31110800    231.69994   -1239.0495    8.5655763   -1230.4839 
31110900    227.93392   -1238.9197    8.4263528   -1230.4934 
31111000    223.55372   -1238.7706    8.2644236   -1230.5062 
31111100    229.84592   -1239.0178    8.4970364   -1230.5208 
31111200    231.77719   -1239.1097    8.5684321   -1230.5413 
31111300    232.72001   -1239.1742    8.6032868   -1230.5709 
31111400    220.60544   -1238.7648    8.1554303   -1230.6093 
31111500    213.12991   -1238.5278     7.879072   -1230.6487 
31111600    218.88485   -1238.7779    8.0918228   -1230.6861 
31111700    219.66665   -1238.8458    8.1207249   -1230.7251 
31111800    218.30749   -1238.8363    8.0704789   -1230.7658 
31111900     214.0073   -1238.7185    7.9115078    -1230.807 
31112000     209.1808   -1238.5782    7.7330799   -1230.8451 
31112100    208.00337   -1238.5663     7.689552   -1230.8768 
31112200    218.46997   -1238.9784    8.0764856   -1230.9019 
31112300    226.19582   -1239.2891    8.3620978    -1230.927 
31112400     217.8622   -1239.0092    8.0540173   -1230.9552 
31112500    215.50249   -1238.9484    7.9667827   -1230.9816 
31112600    219.47225   -1239.1185    8.1135383   -1231.0049 
31112700    221.96554   -1239.2332    8.2057111   -1231.0275 
31112800    222.98492    -1239.294     8.243396   -1231.0506 
31112900    225.07429   -1239.3962    8.3206368   -1231.0756 
31113000    221.29654   -1239.2842    8.1809792   -1231.1032 
31113100    214.24068   -1239.0505    7.9201355   -1231.1303 
31113200    210.72935   -1238.9425    7.7903274   -1231.1522 
31113300    212.17617   -1239.0103     7.843814   -1231.1665 
31113400    215.25536   -1239.1311    7.9576466   -1231.1734 
31113500    211.07208   -1238.9767    7.8029973   -1231.1737 
31113600    211.41535   -1238.9803    7.8156877   -1231.1646 
31113700    224.68139   -1239.4513    8.3061119   -1231.1452 
31113800    225.57967   -1239.4616    8.3393197   -1231.1223 
31113900    217.01554   -1239.1207    8.0227175    -1231.098 
31114000     221.0048   -1239.2372     8.170194   -1231.0671 
31114100    225.93316   -1239.3818    8.3523876   -1231.0294 
31114200    223.69298   -1239.2585     8.269572   -1230.9889 
[...]
31873100    13.352631   -1249.3685   0.49362542   -1248.8748 
31873200    12.534101   -1249.3302   0.46336568   -1248.8669 
31873300    12.688126   -1249.3271   0.46905973    -1248.858 
31873400    12.758427   -1249.3302   0.47165867   -1248.8586 
31873500    12.544593   -1249.3481   0.46375356   -1248.8843 
31873600    11.937123   -1249.3332   0.44129637   -1248.8919 
31873700    11.280771    -1249.326   0.41703208    -1248.909 
31873800    12.846532   -1249.3409   0.47491576    -1248.866 
31873900    12.588995   -1249.3277   0.46539501   -1248.8623 
31874000    12.449521    -1249.319   0.46023887   -1248.8587 
31874100    12.373231   -1249.3227   0.45741858   -1248.8653 
31874200    12.570717    -1249.342   0.46471932   -1248.8773 
31874300    12.141752   -1249.3292   0.44886118   -1248.8803 
31874400    11.347067   -1249.3175   0.41948293    -1248.898 
31874500    12.125146   -1249.3457   0.44824727   -1248.8974 
31874600    12.344456   -1249.3386   0.45635482   -1248.8822 
31874700    11.240736   -1249.3097   0.41555205   -1248.8941 
31874800    12.278675    -1249.342   0.45392299   -1248.8881 
31874900    11.819594   -1249.3644   0.43695148   -1248.9275 
31875000    11.353332   -1249.3435   0.41971455   -1248.9238 
31875100    10.968495   -1249.3369   0.40548774   -1248.9315 
31875200      12.2982   -1249.3826   0.45464481   -1248.9279 
31875300    11.656841    -1249.389   0.43093478   -1248.9581 
31875400     11.08806   -1249.3615   0.40990785   -1248.9516 
31875500    11.684078   -1249.3874    0.4319417   -1248.9555 
31875600    11.972455   -1249.3913   0.44260254   -1248.9487 
31875700     10.90996   -1249.3628   0.40332378   -1248.9595 
31875800    10.903372   -1249.3795   0.40308023   -1248.9764 
31875900    10.659753   -1249.3849   0.39407404   -1248.9909 
31876000     10.59895   -1249.3765   0.39182623   -1248.9846 
31876100    11.477723   -1249.3931   0.42431306   -1248.9688 
31876200    11.251988   -1249.3894     0.415968   -1248.9734 
31876300    10.708311   -1249.3667   0.39586916   -1248.9708 
31876400    11.245351   -1249.3606   0.41572264   -1248.9449 
31876500    11.044389   -1249.3599    0.4082934   -1248.9516 
31876600    10.603329   -1249.3549   0.39198812   -1248.9629 
31876700    10.517561   -1249.3631   0.38881741   -1248.9743 
31876800     10.65409   -1249.3648   0.39386468    -1248.971 
31876900     11.54068   -1249.3737   0.42664047    -1248.947 
31877000    11.761817   -1249.3757   0.43481558   -1248.9409 
31877100    11.644154   -1249.3915   0.43046576   -1248.9611 
31877200    11.706094   -1249.3809   0.43275558   -1248.9481 
31877300    11.622246   -1249.3672   0.42965585   -1248.9376 
31877400    11.576611   -1249.3709   0.42796879   -1248.9429 
31877500    11.193861   -1249.3876   0.41381914   -1248.9738 
31877600    11.490578   -1249.4069   0.42478831   -1248.9821 
31877700    11.399854   -1249.3985   0.42143436   -1248.9771 
31877800    10.812439   -1249.3867    0.3997186   -1248.9869 
31877900    10.654323   -1249.3927    0.3938733   -1248.9988 
31878000     10.99024   -1249.4242   0.40629159   -1249.0179 
31878100    10.709722   -1249.4104   0.39592132   -1249.0144 
31878200    11.086611   -1249.4183   0.40985427   -1249.0084 
31878300    10.650225   -1249.4322   0.39372179   -1249.0385 
31878400     10.19701   -1249.4232   0.37696716   -1249.0463 
31878500    10.588156   -1249.4328   0.39142721   -1249.0413 
31878600    10.795413   -1249.4202   0.39908917   -1249.0211 
31878700    10.667215   -1249.3887   0.39434987   -1248.9943 
31878800    10.785029   -1249.3911   0.39870528   -1248.9924 
31878900    9.9804815   -1249.3639   0.36896245    -1248.995 
31879000    9.6657683   -1249.3675     0.357328   -1249.0102 
31879100    10.686302   -1249.4212   0.39505552   -1249.0262 
31879200    10.484586   -1249.4153    0.3875984   -1249.0277 
31879300    9.5883314   -1249.3893   0.35446529   -1249.0348 
31879400    10.884254   -1249.4276   0.40237347   -1249.0252 
31879500    10.541537   -1249.4305   0.38970378   -1249.0408 
31879600    9.7033614   -1249.4123   0.35871776   -1249.0536 
31879700    10.207407   -1249.4361   0.37735152   -1249.0588 
31879800    10.380087    -1249.462   0.38373523   -1249.0783 
31879900    9.5021302   -1249.4332   0.35127857   -1249.0819 
31880000    8.8534383   -1249.4315   0.32729746   -1249.1042 
31880100    10.089239   -1249.4672   0.37298303   -1249.0943 
31880200    9.4947211   -1249.4497   0.35100466   -1249.0987 
31880300    8.8321314    -1249.431   0.32650978   -1249.1045 
31880400    9.4071336   -1249.4605   0.34776669   -1249.1127 
31880500    9.4740377   -1249.4626   0.35024003   -1249.1124 
31880600    9.3560466   -1249.4515   0.34587809   -1249.1056 
31880700    9.3722275   -1249.4582   0.34647627   -1249.1118 
31880800    9.4464834   -1249.4717   0.34922139   -1249.1224 
31880900    8.6337402   -1249.4513   0.31917557   -1249.1321 
31881000    8.5903356   -1249.4402   0.31757098   -1249.1227 
31881100    8.8004051   -1249.4537   0.32533691   -1249.1283 
31881200    9.0368887   -1249.4584   0.33407933   -1249.1243 
31881300     8.369649   -1249.4492   0.30941254   -1249.1398 
31881400    9.1098198   -1249.4614   0.33677548   -1249.1246 
31881500    9.4093974   -1249.4773   0.34785038   -1249.1295 
31881600    8.8510796   -1249.4713   0.32721027   -1249.1441 
31881700    8.9338127   -1249.4622   0.33026877   -1249.1319 
31881800    8.7208519   -1249.4626   0.32239595   -1249.1402 
31881900    8.3277258   -1249.4704   0.30786271   -1249.1625 
31882000    8.7757803   -1249.4922   0.32442657   -1249.1678 
31882100    8.1474636   -1249.4727   0.30119871   -1249.1715 
31882200    8.0889743   -1249.4747   0.29903645   -1249.1757 
31882300    8.8788703   -1249.5047   0.32823764   -1249.1765 
31882400     8.871465   -1249.4993   0.32796388   -1249.1713 
31882500      8.04875   -1249.4656   0.29754942    -1249.168 
31882600    8.3067018   -1249.4851   0.30708549   -1249.1781 
31882700    8.5812605   -1249.5054   0.31723548   -1249.1882 
31882800    8.2800443   -1249.4843       0.3061   -1249.1782 
31882900    8.6789337   -1249.4987    0.3208463   -1249.1779 
31883000    7.7945975    -1249.495   0.28815381   -1249.2069 
31883100    7.3984654   -1249.4845   0.27350944    -1249.211 
31883200    8.4079659   -1249.5263   0.31082906   -1249.2155 
31883300    8.3138938   -1249.5406   0.30735136   -1249.2333 
31883400    7.2836189   -1249.5142   0.26926375   -1249.2449 
31883500    7.1569801   -1249.5229   0.26458212   -1249.2583 
31883600    7.1432996   -1249.5207   0.26407637   -1249.2567 
31883700    6.7218796   -1249.5091   0.24849714   -1249.2606 
31883800    7.1509483   -1249.5186   0.26435913   -1249.2542 
31883900    7.5323125   -1249.5299   0.27845755   -1249.2514 
31884000     7.412764   -1249.5334   0.27403804   -1249.2594 
31884100    7.1547069   -1249.5262   0.26449808   -1249.2617 
31884200    7.2541855   -1249.5255   0.26817564   -1249.2573 
31884300    7.4132768   -1249.5427   0.27405699   -1249.2686 
31884400    7.3279433   -1249.5466   0.27090235   -1249.2757 
31884500    7.0131522   -1249.5372   0.25926503   -1249.2779 
31884600    7.4705568   -1249.5372   0.27617454   -1249.2611 
31884700    7.4102191   -1249.5308   0.27394396   -1249.2569 
31884800    7.1358994   -1249.5187   0.26380279   -1249.2549 
31884900    6.2912558    -1249.499   0.23257767   -1249.2665 
31885000    6.7075999   -1249.5252   0.24796924   -1249.2772 
31885100    7.8316839   -1249.5588   0.28952483   -1249.2693 
31885200       6.6909     -1249.53   0.24735188   -1249.2826 
31885300    6.7138998    -1249.532   0.24820214   -1249.2838 
31885400     7.873999   -1249.5738   0.29108915   -1249.2827 
31885500    6.9945704    -1249.547   0.25857809   -1249.2884 
31885600    6.2068071   -1249.5249   0.22945574   -1249.2954 
31885700    6.9050588   -1249.5471   0.25526899   -1249.2918 
31885800    6.6748033    -1249.547   0.24675681   -1249.3003 
31885900    6.7322684    -1249.551    0.2488812   -1249.3021 
31886000    6.8781794   -1249.5548    0.2542753   -1249.3005 
31886100    6.4083012    -1249.543   0.23690465   -1249.3061 
31886200     6.410221   -1249.5347   0.23697562   -1249.2977 
31886300    6.8360265   -1249.5455   0.25271697   -1249.2928 
31886400    6.8134168   -1249.5446   0.25188113   -1249.2927 
31886500    6.7043616   -1249.5355   0.24784953   -1249.2877 
31886600    6.6411628   -1249.5379   0.24551317   -1249.2924 
31886700    6.5896228   -1249.5282   0.24360782   -1249.2846 
31886800    6.0883163    -1249.525   0.22507532   -1249.2999 
31886900    6.8313353   -1249.5537   0.25254355   -1249.3011 
31887000    6.2641792   -1249.5534   0.23157669   -1249.3218 
31887100    6.0910561   -1249.5473   0.22517661   -1249.3222 
31887200    6.5170284   -1249.5662   0.24092412   -1249.3252 
31887300    6.2351997   -1249.5684   0.23050537   -1249.3379 
31887400    5.8431753   -1249.5587   0.21601285   -1249.3427 
31887500    5.9620221   -1249.5703   0.22040643   -1249.3498 
31887600    6.0418551    -1249.578   0.22335773   -1249.3547 
31887700    5.7540122   -1249.5703   0.21271663   -1249.3576 
31887800    5.9179571   -1249.5773   0.21877741   -1249.3585 
31887900    5.6712513    -1249.579    0.2096571   -1249.3694 
31888000    5.5544712     -1249.58   0.20533992   -1249.3747 
31888100    6.1376108   -1249.5919   0.22689766    -1249.365 
31888200    5.6616922   -1249.5859   0.20930371   -1249.3766 
31888300    5.5281409   -1249.5774   0.20436653   -1249.3731 
31888400    5.9538678   -1249.5914   0.22010498   -1249.3713 
31888500    6.1251951   -1249.6084   0.22643867    -1249.382 
31888600    5.8443325   -1249.6109   0.21605563   -1249.3948 
31888700    5.4606642   -1249.5983   0.20187203   -1249.3964 
31888800     5.458486   -1249.5879    0.2017915   -1249.3862 
31888900      5.28703   -1249.5924   0.19545305   -1249.3969 
31889000    4.9833195   -1249.5934   0.18422535   -1249.4092 
31889100    5.1579385   -1249.6061   0.19068074   -1249.4154 
31889200    4.9721507   -1249.6017   0.18381246   -1249.4179 
31889300    4.7923929   -1249.5952    0.1771671   -1249.4181 
31889400     4.984363   -1249.6072   0.18426393    -1249.423 
31889500    4.8955085   -1249.6073   0.18097912   -1249.4263 
31889600    4.7290612   -1249.5967   0.17482583   -1249.4219 
31889700    4.9543615   -1249.6066   0.18315482   -1249.4235 
31889800    5.3084869   -1249.6195   0.19624628   -1249.4233 
31889900    4.8459901    -1249.608   0.17914851   -1249.4288 
31890000    4.6837868   -1249.6052   0.17315211    -1249.432 
31890100    4.9857504   -1249.6181   0.18431522   -1249.4338 
31890200    4.4835855   -1249.6069   0.16575099   -1249.4411 
31890300    4.7767013   -1249.6189   0.17658701   -1249.4423 
31890400     4.896985    -1249.627   0.18103371   -1249.4459 
31890500      4.68233   -1249.6239   0.17309825   -1249.4508 
31890600     4.922789   -1249.6301   0.18198764   -1249.4481 
31890700    4.7679644   -1249.6267   0.17626402   -1249.4504 
31890800    4.7208543   -1249.6232   0.17452244   -1249.4486 
31890900    5.0216376   -1249.6419   0.18564191   -1249.4562 
31891000    4.7183136    -1249.631   0.17442851   -1249.4566 
31891100     4.346308   -1249.6103   0.16067606   -1249.4496 
31891200    4.4956017   -1249.6161   0.16619521   -1249.4499 
31891300    4.7985237   -1249.6288   0.17739375   -1249.4514 
31891400    4.5453248    -1249.628   0.16803339     -1249.46 
31891500    4.1866726   -1249.6237   0.15477459    -1249.469 
31891600    4.3275496   -1249.6369   0.15998259   -1249.4769 
31891700    4.5560568   -1249.6477   0.16843014   -1249.4793 
31891800    4.2253287   -1249.6331   0.15620365   -1249.4769 
31891900     3.933057   -1249.6304   0.14539883    -1249.485 
31892000    4.4604336   -1249.6487    0.1648951   -1249.4838 
31892100    4.0498866   -1249.6399   0.14971784   -1249.4901 
31892200    3.9974383   -1249.6314    0.1477789   -1249.4836 
31892300    4.0904562   -1249.6405   0.15121763   -1249.4893 
31892400    4.1151271   -1249.6377   0.15212967   -1249.4856 
31892500    3.7375157   -1249.6351   0.13816998    -1249.497 
31892600    4.2945526   -1249.6586   0.15876274   -1249.4998 
31892700     4.159892   -1249.6646   0.15378456   -1249.5108 
31892800    3.6273417   -1249.6463   0.13409702   -1249.5122 
31892900    3.5344903   -1249.6483   0.13066446   -1249.5176 
31893000    3.8226565   -1249.6587    0.1413175   -1249.5174 
31893100    3.7351101   -1249.6632   0.13808105   -1249.5252 
31893200    3.5878153   -1249.6623    0.1326358   -1249.5296 
31893300    3.2902549   -1249.6513   0.12163546   -1249.5297 
31893400    3.5198217   -1249.6552   0.13012218   -1249.5251 
31893500    3.5544234   -1249.6567   0.13140135   -1249.5253 
31893600    3.4115939   -1249.6623   0.12612117   -1249.5362 
31893700     3.571681   -1249.6778   0.13203934   -1249.5457 
31893800    3.5089361   -1249.6815   0.12971976   -1249.5518 
31893900    3.2291571   -1249.6807   0.11937678   -1249.5613 
31894000    3.1248319   -1249.6823   0.11552004   -1249.5668 
31894100    3.1468273   -1249.6838   0.11633318   -1249.5675 
31894200    2.9940958   -1249.6779   0.11068694   -1249.5672 
31894300    2.9047254   -1249.6787   0.10738305   -1249.5713 
31894400    3.1034659   -1249.6875   0.11473017   -1249.5728 
31894500    3.1250464   -1249.6908   0.11552797   -1249.5752 
31894600    3.0625109   -1249.6849   0.11321613   -1249.5717 
31894700    2.6939272   -1249.6808  0.099590181   -1249.5812 
31894800    2.7619219   -1249.6877   0.10210384   -1249.5856 
31894900    2.8737529   -1249.6914   0.10623805   -1249.5852 
31895000    2.5791096   -1249.6883  0.095345559    -1249.593 
31895100    2.6582377   -1249.6914    0.0982708   -1249.5931 
31895200    2.8008715   -1249.7009   0.10354374   -1249.5974 
31895300    2.6473576   -1249.7025  0.097868579   -1249.6046 
31895400    2.5573507   -1249.7035  0.094541168    -1249.609 
31895500    2.4235514   -1249.7063  0.089594821   -1249.6167 
31895600     2.425743    -1249.709   0.08967584   -1249.6193 
31895700    2.4013009   -1249.7136  0.088772257   -1249.6248 
31895800    2.3648904   -1249.7138  0.087426218   -1249.6263 
31895900    2.2295777   -1249.7127  0.082423924   -1249.6303 
31896000    2.1936666   -1249.7155  0.081096349   -1249.6344 
31896100      2.12528    -1249.716  0.078568203   -1249.6374 
31896200     1.959531   -1249.7147  0.072440728   -1249.6423 
31896300    1.7996687   -1249.7142  0.066530874   -1249.6476 
31896400    1.8350936   -1249.7197  0.067840477   -1249.6518 
31896500    1.9834791   -1249.7282   0.07332605   -1249.6548 
31896600    1.9084263    -1249.724   0.07055147   -1249.6535 
31896700    1.8351871   -1249.7213  0.067843933   -1249.6534 
31896800    1.9544639   -1249.7298  0.072253407   -1249.6575 
31896900    1.8859602   -1249.7313  0.069720935   -1249.6616 
31897000    1.7539381     -1249.73  0.064840289   -1249.6652 
31897100    1.6516858   -1249.7301  0.061060182    -1249.669 
31897200    1.5819563   -1249.7301  0.058482397   -1249.6717 
31897300    1.5593038   -1249.7359  0.057644971   -1249.6782 
31897400    1.6332278   -1249.7421   0.06037782   -1249.6818 
31897500    1.4913833   -1249.7388  0.055134058   -1249.6836 
31897600    1.4778462     -1249.74  0.054633612   -1249.6853 
31897700    1.4535492   -1249.7436  0.053735392   -1249.6899 
31897800    1.4510536   -1249.7446  0.053643134    -1249.691 
31897900    1.4333791   -1249.7446  0.052989733   -1249.6916 
31898000    1.3688652   -1249.7452  0.050604757   -1249.6946 
31898100    1.2886191    -1249.748  0.047638188   -1249.7003 
31898200     1.237566   -1249.7486  0.045750838   -1249.7029 
31898300    1.2163677   -1249.7502  0.044967168   -1249.7053 
31898400    1.2202108   -1249.7523  0.045109241   -1249.7072 
31898500    1.0603161   -1249.7518   0.03919819   -1249.7126 
31898600    1.0433054   -1249.7551  0.038569332   -1249.7166 
31898700    1.0058968   -1249.7564  0.037186397   -1249.7192 
31898800    0.9028408   -1249.7569  0.033376581   -1249.7235 
31898900   0.86228373     -1249.76  0.031877251   -1249.7282 
31899000   0.86449144   -1249.7633  0.031958867   -1249.7314 
31899100   0.81756733   -1249.7645  0.030224157   -1249.7343 
31899200   0.74085134   -1249.7652   0.02738809   -1249.7378 
31899300   0.73704197    -1249.767  0.027247264   -1249.7398 
31899400   0.71750044   -1249.7686  0.026524844    -1249.742 
31899500   0.63607375    -1249.769   0.02351463   -1249.7455 
31899600   0.61946475   -1249.7719  0.022900622    -1249.749 
31899700   0.60001735   -1249.7742  0.022181682   -1249.7521 
31899800   0.54249982   -1249.7751  0.020055351    -1249.755 
31899900   0.49750045   -1249.7765  0.018391796   -1249.7581 
31900000   0.44007811   -1249.7776  0.016268984   -1249.7613 
31900013   0.43400193   -1249.7778  0.016044357   -1249.7617 
Loop time of 523.704 on 4 procs for 500000 steps with 287 atoms

Performance: 8.249 ns/day, 2.909 hours/ns, 954.737 timesteps/s
88.4% CPU use with 4 MPI tasks x 1 OpenMP threads

MPI task timing breakdown:
Section |  min time  |  avg time  |  max time  |%varavg| %total
---------------------------------------------------------------
Pair    | 260.25     | 303.46     | 339.33     | 182.4 | 57.94
Neigh   | 0          | 0          | 0          |   0.0 |  0.00
Comm    | 158.7      | 194.05     | 236.77     | 224.5 | 37.05
Output  | 2.6708     | 2.8205     | 3.157      |  11.7 |  0.54
Modify  | 2.4307     | 2.5265     | 2.7198     |   7.2 |  0.48
Other   |            | 20.85      |            |       |  3.98

Nlocal:    71.75 ave 75 max 69 min
Histogram: 1 1 0 0 0 0 1 0 0 1
Nghost:    459.5 ave 464 max 456 min
Histogram: 1 0 1 0 0 1 0 0 0 1
Neighs:    0 ave 0 max 0 min
Histogram: 4 0 0 0 0 0 0 0 0 0
FullNghs:  2000 ave 2121 max 1915 min
Histogram: 2 0 0 0 0 1 0 0 0 1

Total # of neighbors = 8000
Ave neighs/atom = 27.8746
Neighbor list builds = 0
Dangerous builds = 0
unfix		cool
unfix		coolcouple

#perform a second potential energy minimization, again with the conjugate gradient method
min_style	hftn
minimize	1.0e-2 1.0e-3 100 1000
WARNING: Using 'neigh_modify every 1 delay 0 check yes' setting during minimization (src/min.cpp:178)
Per MPI rank memory allocation (min/avg/max) = 7.323 | 7.323 | 7.323 Mbytes
Step Temp PotEng KinEng TotEng 
31900013   0.43400193   -1249.7778  0.016044357   -1249.7617 
31900016   0.43400193   -1253.1342  0.016044357   -1253.1182 
Loop time of 0.0150603 on 4 procs for 2 steps with 287 atoms

94.3% CPU use with 4 MPI tasks x 1 OpenMP threads

Minimization stats:
  Stopping criterion = energy tolerance
  Energy initial, next-to-last, final = 
         -1249.7777846     -1251.40799326     -1253.13424218
  Force two-norm initial, final = 13.2565 2.285
  Force max component initial, final = 4.76101 0.49752
  Final line search alpha, max atom move = 0 0
  Iterations, force evaluations = 2 21

MPI task timing breakdown:
Section |  min time  |  avg time  |  max time  |%varavg| %total
---------------------------------------------------------------
Pair    | 0.010777   | 0.01231    | 0.013457   |   0.9 | 81.74
Neigh   | 0          | 0          | 0          |   0.0 |  0.00
Comm    | 0.0010596  | 0.0022213  | 0.0037754  |   2.2 | 14.75
Output  | 0          | 0          | 0          |   0.0 |  0.00
Modify  | 0          | 0          | 0          |   0.0 |  0.00
Other   |            | 0.0005293  |            |       |  3.51

Nlocal:    71.75 ave 76 max 68 min
Histogram: 1 1 0 0 0 0 0 1 0 1
Nghost:    459.25 ave 464 max 455 min
Histogram: 1 0 0 1 0 1 0 0 0 1
Neighs:    0 ave 0 max 0 min
Histogram: 4 0 0 0 0 0 0 0 0 0
FullNghs:  2003 ave 2115 max 1872 min
Histogram: 1 0 1 0 0 0 0 0 0 2

Total # of neighbors = 8012
Ave neighs/atom = 27.9164
Neighbor list builds = 0
Dangerous builds = 0

# --------- Dump xyz file with atoms of only the final state ------------
write_dump	all atom ${dumpsnap}
write_dump	all atom pelotonResults/cSiaSiInterfaceSnapshot-1847875-7.xyz

Total wall time: 0:15:43
